REMARK  Name = lvtkl_conformers\LVTKL_08.pdb
REMARK                            x       y       z     vdW  Elec       q    Type
REMARK                         _______ _______ _______ _____ _____    ______ ____
ATOM      1  N   LEU A   1       6.140  -2.632   1.357  0.00  0.00    +0.000 NA
ATOM      2  CA  LEU A   1       4.676  -2.593   1.346  0.00  0.00    +0.000 C 
ATOM      3  C   LEU A   1       4.154  -2.108   0.017  0.00  0.00    +0.000 C 
ATOM      4  O   LEU A   1       4.898  -1.434  -0.748  0.00  0.00    +0.000 OA
ATOM      5  CB  LEU A   1       4.125  -1.732   2.509  0.00  0.00    +0.000 C 
ATOM      6  CG  LEU A   1       4.326  -0.198   2.373  0.00  0.00    +0.000 C 
ATOM      7  CD1 LEU A   1       3.479   0.534   3.422  0.00  0.00    +0.000 C 
ATOM      8  CD2 LEU A   1       5.799   0.214   2.517  0.00  0.00    +0.000 C 
ATOM      9  N   VAL A   2       2.782  -2.336  -0.332  0.00  0.00    +0.000 N 
ATOM     10  CA  VAL A   2       2.062  -1.435  -1.238  0.00  0.00    +0.000 C 
ATOM     11  C   VAL A   2       1.702  -0.185  -0.474  0.00  0.00    +0.000 C 
ATOM     12  O   VAL A   2       1.189  -0.286   0.674  0.00  0.00    +0.000 OA
ATOM     13  CB  VAL A   2       0.799  -2.127  -1.819  0.00  0.00    +0.000 C 
ATOM     14  CG1 VAL A   2       0.078  -1.222  -2.831  0.00  0.00    +0.000 C 
ATOM     15  CG2 VAL A   2       1.158  -3.458  -2.499  0.00  0.00    +0.000 C 
ATOM     16  N   THR A   3       1.947   1.112  -1.038  0.00  0.00    +0.000 N 
ATOM     17  CA  THR A   3       1.862   2.338  -0.232  0.00  0.00    +0.000 C 
ATOM     18  C   THR A   3       0.463   2.537   0.304  0.00  0.00    +0.000 C 
ATOM     19  O   THR A   3       0.310   2.993   1.470  0.00  0.00    +0.000 OA
ATOM     20  CB  THR A   3       2.373   3.571  -1.024  0.00  0.00    +0.000 C 
ATOM     21  OG1 THR A   3       2.596   4.660  -0.163  0.00  0.00    +0.000 OA
ATOM     22  CG2 THR A   3       1.464   3.986  -2.194  0.00  0.00    +0.000 C 
ATOM     23  N   LYS A   4      -0.684   2.222  -0.500  0.00  0.00    +0.000 N 
ATOM     24  CA  LYS A   4      -2.051   2.312   0.021  0.00  0.00    +0.000 C 
ATOM     25  C   LYS A   4      -2.304   1.185   0.988  0.00  0.00    +0.000 C 
ATOM     26  O   LYS A   4      -2.696   1.451   2.156  0.00  0.00    +0.000 OA
ATOM     27  CB  LYS A   4      -3.084   2.264  -1.122  0.00  0.00    +0.000 C 
ATOM     28  CG  LYS A   4      -3.015   3.519  -2.008  0.00  0.00    +0.000 C 
ATOM     29  CD  LYS A   4      -3.922   3.421  -3.247  0.00  0.00    +0.000 C 
ATOM     30  CE  LYS A   4      -5.422   3.430  -2.922  0.00  0.00    +0.000 C 
ATOM     31  NZ  LYS A   4      -5.797   4.646  -2.206  0.00  0.00    +0.000 NA
ATOM     32  N   LEU A   5      -2.127  -0.181   0.578  0.00  0.00    +0.000 N 
ATOM     33  CA  LEU A   5      -2.524  -1.314   1.417  0.00  0.00    +0.000 C 
ATOM     34  C   LEU A   5      -1.360  -1.703   2.286  0.00  0.00    +0.000 C 
ATOM     35  O   LEU A   5      -1.299  -1.286   3.473  0.00  0.00    +0.000 OA
ATOM     36  CB  LEU A   5      -3.010  -2.479   0.518  0.00  0.00    +0.000 C 
ATOM     37  CG  LEU A   5      -3.831  -3.593   1.218  0.00  0.00    +0.000 C 
ATOM     38  CD1 LEU A   5      -3.022  -4.383   2.253  0.00  0.00    +0.000 C 
ATOM     39  CD2 LEU A   5      -5.141  -3.074   1.826  0.00  0.00    +0.000 C 
ATOM     40  OXT LEU A   5      -0.326  -2.482   1.774  0.00  0.00    +0.000 OA
ATOM     41  H1  UNL     1       6.457  -3.301   0.618  0.00  0.00    +0.000 HD
ATOM     42  H2  UNL     1       6.452  -3.041   2.268  0.00  0.00    +0.000 HD
ATOM     43  H13 UNL     1       2.222  -2.968   0.285  0.00  0.00    +0.000 HD
ATOM     44  H22 UNL     1       2.297   1.161  -2.022  0.00  0.00    +0.000 HD
ATOM     45  H25 UNL     1       1.713   4.972   0.168  0.00  0.00    +0.000 HD
ATOM     46  H29 UNL     1      -0.531   1.904  -1.483  0.00  0.00    +0.000 HD
ATOM     47  H39 UNL     1      -6.812   4.573  -1.964  0.00  0.00    +0.000 HD
ATOM     48  H40 UNL     1      -5.705   5.454  -2.863  0.00  0.00    +0.000 HD
ATOM     49  H41 UNL     1      -1.654  -0.371  -0.334  0.00  0.00    +0.000 HD
ATOM     50  H52 UNL     1       0.469  -2.734   2.350  0.00  0.00    +0.000 HD
TER 
