REMARK  Name = lvtkl_conformers\LVTKL_02.pdb
REMARK                            x       y       z     vdW  Elec       q    Type
REMARK                         _______ _______ _______ _____ _____    ______ ____
ATOM      1  N   LEU A   1       4.573   1.961  -3.254  0.00  0.00    +0.000 NA
ATOM      2  CA  LEU A   1       5.353   1.360  -2.171  0.00  0.00    +0.000 C 
ATOM      3  C   LEU A   1       4.430   0.608  -1.247  0.00  0.00    +0.000 C 
ATOM      4  O   LEU A   1       4.676  -0.600  -0.978  0.00  0.00    +0.000 OA
ATOM      5  CB  LEU A   1       6.129   2.462  -1.413  0.00  0.00    +0.000 C 
ATOM      6  CG  LEU A   1       6.972   1.950  -0.219  0.00  0.00    +0.000 C 
ATOM      7  CD1 LEU A   1       7.563   3.139   0.550  0.00  0.00    +0.000 C 
ATOM      8  CD2 LEU A   1       8.100   1.010  -0.671  0.00  0.00    +0.000 C 
ATOM      9  N   VAL A   2       3.294   1.262  -0.661  0.00  0.00    +0.000 N 
ATOM     10  CA  VAL A   2       2.404   0.578   0.286  0.00  0.00    +0.000 C 
ATOM     11  C   VAL A   2       1.640  -0.520  -0.416  0.00  0.00    +0.000 C 
ATOM     12  O   VAL A   2       1.236  -0.344  -1.599  0.00  0.00    +0.000 OA
ATOM     13  CB  VAL A   2       1.462   1.592   0.998  0.00  0.00    +0.000 C 
ATOM     14  CG1 VAL A   2       0.808   0.975   2.243  0.00  0.00    +0.000 C 
ATOM     15  CG2 VAL A   2       0.382   2.175   0.072  0.00  0.00    +0.000 C 
ATOM     16  N   THR A   3       1.348  -1.747   0.269  0.00  0.00    +0.000 N 
ATOM     17  CA  THR A   3       0.520  -2.795  -0.338  0.00  0.00    +0.000 C 
ATOM     18  C   THR A   3      -0.913  -2.333  -0.368  0.00  0.00    +0.000 C 
ATOM     19  O   THR A   3      -1.516  -2.261  -1.474  0.00  0.00    +0.000 OA
ATOM     20  CB  THR A   3       0.668  -4.130   0.435  0.00  0.00    +0.000 C 
ATOM     21  OG1 THR A   3       2.013  -4.538   0.415  0.00  0.00    +0.000 OA
ATOM     22  CG2 THR A   3      -0.178  -5.245  -0.188  0.00  0.00    +0.000 C 
ATOM     23  N   LYS A   4      -1.586  -1.981   0.849  0.00  0.00    +0.000 N 
ATOM     24  CA  LYS A   4      -2.984  -1.549   0.883  0.00  0.00    +0.000 C 
ATOM     25  C   LYS A   4      -3.034  -0.045   0.941  0.00  0.00    +0.000 C 
ATOM     26  O   LYS A   4      -2.726   0.552   2.009  0.00  0.00    +0.000 OA
ATOM     27  CB  LYS A   4      -3.718  -2.179   2.086  0.00  0.00    +0.000 C 
ATOM     28  CG  LYS A   4      -3.628  -3.717   2.131  0.00  0.00    +0.000 C 
ATOM     29  CD  LYS A   4      -4.320  -4.394   0.939  0.00  0.00    +0.000 C 
ATOM     30  CE  LYS A   4      -4.334  -5.916   1.107  0.00  0.00    +0.000 C 
ATOM     31  NZ  LYS A   4      -4.952  -6.544  -0.057  0.00  0.00    +0.000 NA
ATOM     32  N   LEU A   5      -3.379   0.709  -0.232  0.00  0.00    +0.000 N 
ATOM     33  CA  LEU A   5      -3.537   2.166  -0.206  0.00  0.00    +0.000 C 
ATOM     34  C   LEU A   5      -4.831   2.494   0.482  0.00  0.00    +0.000 C 
ATOM     35  O   LEU A   5      -4.820   3.071   1.603  0.00  0.00    +0.000 OA
ATOM     36  CB  LEU A   5      -3.495   2.722  -1.653  0.00  0.00    +0.000 C 
ATOM     37  CG  LEU A   5      -3.331   4.257  -1.806  0.00  0.00    +0.000 C 
ATOM     38  CD1 LEU A   5      -4.538   5.054  -1.294  0.00  0.00    +0.000 C 
ATOM     39  CD2 LEU A   5      -2.026   4.783  -1.194  0.00  0.00    +0.000 C 
ATOM     40  OXT LEU A   5      -6.043   2.128  -0.097  0.00  0.00    +0.000 OA
ATOM     41  H1  UNL     1       4.095   1.194  -3.782  0.00  0.00    +0.000 HD
ATOM     42  H2  UNL     1       5.236   2.406  -3.932  0.00  0.00    +0.000 HD
ATOM     43  H13 UNL     1       3.141   2.272  -0.881  0.00  0.00    +0.000 HD
ATOM     44  H22 UNL     1       1.674  -1.856   1.256  0.00  0.00    +0.000 HD
ATOM     45  H25 UNL     1       2.453  -4.143   1.212  0.00  0.00    +0.000 HD
ATOM     46  H29 UNL     1      -1.038  -1.961   1.739  0.00  0.00    +0.000 HD
ATOM     47  H39 UNL     1      -4.871  -7.580   0.060  0.00  0.00    +0.000 HD
ATOM     48  H40 UNL     1      -5.975  -6.323  -0.043  0.00  0.00    +0.000 HD
ATOM     49  H41 UNL     1      -3.572   0.190  -1.119  0.00  0.00    +0.000 HD
ATOM     50  H52 UNL     1      -6.921   2.334   0.363  0.00  0.00    +0.000 HD
TER 
