REMARK  Name = lvtkl_conformers\LVTKL_07.pdb
REMARK                            x       y       z     vdW  Elec       q    Type
REMARK                         _______ _______ _______ _____ _____    ______ ____
ATOM      1  N   LEU A   1       8.431   0.492  -1.391  0.00  0.00    +0.000 NA
ATOM      2  CA  LEU A   1       7.109  -0.114  -1.213  0.00  0.00    +0.000 C 
ATOM      3  C   LEU A   1       6.114   0.956  -0.839  0.00  0.00    +0.000 C 
ATOM      4  O   LEU A   1       6.325   1.672   0.178  0.00  0.00    +0.000 OA
ATOM      5  CB  LEU A   1       7.158  -1.236  -0.147  0.00  0.00    +0.000 C 
ATOM      6  CG  LEU A   1       5.800  -1.938   0.108  0.00  0.00    +0.000 C 
ATOM      7  CD1 LEU A   1       5.296  -2.691  -1.132  0.00  0.00    +0.000 C 
ATOM      8  CD2 LEU A   1       5.927  -2.908   1.289  0.00  0.00    +0.000 C 
ATOM      9  N   VAL A   2       4.919   1.133  -1.615  0.00  0.00    +0.000 N 
ATOM     10  CA  VAL A   2       3.776   1.920  -1.132  0.00  0.00    +0.000 C 
ATOM     11  C   VAL A   2       2.759   1.018  -0.480  0.00  0.00    +0.000 C 
ATOM     12  O   VAL A   2       2.670  -0.191  -0.831  0.00  0.00    +0.000 OA
ATOM     13  CB  VAL A   2       3.139   2.770  -2.266  0.00  0.00    +0.000 C 
ATOM     14  CG1 VAL A   2       4.155   3.770  -2.836  0.00  0.00    +0.000 C 
ATOM     15  CG2 VAL A   2       2.524   1.931  -3.400  0.00  0.00    +0.000 C 
ATOM     16  N   THR A   3       1.856   1.550   0.500  0.00  0.00    +0.000 N 
ATOM     17  CA  THR A   3       0.776   0.740   1.077  0.00  0.00    +0.000 C 
ATOM     18  C   THR A   3      -0.306   0.514   0.054  0.00  0.00    +0.000 C 
ATOM     19  O   THR A   3      -0.594   1.428  -0.768  0.00  0.00    +0.000 OA
ATOM     20  CB  THR A   3       0.181   1.401   2.344  0.00  0.00    +0.000 C 
ATOM     21  OG1 THR A   3      -0.255   2.710   2.072  0.00  0.00    +0.000 OA
ATOM     22  CG2 THR A   3       1.204   1.444   3.481  0.00  0.00    +0.000 C 
ATOM     23  N   LYS A   4      -1.048  -0.714   0.055  0.00  0.00    +0.000 N 
ATOM     24  CA  LYS A   4      -2.246  -0.898  -0.770  0.00  0.00    +0.000 C 
ATOM     25  C   LYS A   4      -3.365  -0.056  -0.216  0.00  0.00    +0.000 C 
ATOM     26  O   LYS A   4      -3.961   0.756  -0.975  0.00  0.00    +0.000 OA
ATOM     27  CB  LYS A   4      -2.637  -2.392  -0.815  0.00  0.00    +0.000 C 
ATOM     28  CG  LYS A   4      -3.880  -2.698  -1.673  0.00  0.00    +0.000 C 
ATOM     29  CD  LYS A   4      -3.656  -2.427  -3.168  0.00  0.00    +0.000 C 
ATOM     30  CE  LYS A   4      -4.848  -2.909  -3.998  0.00  0.00    +0.000 C 
ATOM     31  NZ  LYS A   4      -4.613  -2.647  -5.415  0.00  0.00    +0.000 NA
ATOM     32  N   LEU A   5      -3.755  -0.182   1.161  0.00  0.00    +0.000 N 
ATOM     33  CA  LEU A   5      -4.760   0.683   1.780  0.00  0.00    +0.000 C 
ATOM     34  C   LEU A   5      -4.060   1.870   2.380  0.00  0.00    +0.000 C 
ATOM     35  O   LEU A   5      -4.148   2.998   1.825  0.00  0.00    +0.000 OA
ATOM     36  CB  LEU A   5      -5.556  -0.120   2.836  0.00  0.00    +0.000 C 
ATOM     37  CG  LEU A   5      -6.943   0.478   3.179  0.00  0.00    +0.000 C 
ATOM     38  CD1 LEU A   5      -7.756  -0.530   4.003  0.00  0.00    +0.000 C 
ATOM     39  CD2 LEU A   5      -6.836   1.805   3.946  0.00  0.00    +0.000 C 
ATOM     40  OXT LEU A   5      -3.273   1.718   3.518  0.00  0.00    +0.000 OA
ATOM     41  H1  UNL     1       8.804   0.804  -0.465  0.00  0.00    +0.000 HD
ATOM     42  H2  UNL     1       9.086  -0.236  -1.759  0.00  0.00    +0.000 HD
ATOM     43  H13 UNL     1       4.787   0.525  -2.453  0.00  0.00    +0.000 HD
ATOM     44  H22 UNL     1       1.949   2.557   0.762  0.00  0.00    +0.000 HD
ATOM     45  H25 UNL     1      -1.159   2.638   1.669  0.00  0.00    +0.000 HD
ATOM     46  H29 UNL     1      -0.760  -1.469   0.719  0.00  0.00    +0.000 HD
ATOM     47  H39 UNL     1      -4.659  -1.613  -5.568  0.00  0.00    +0.000 HD
ATOM     48  H40 UNL     1      -5.410  -3.061  -5.951  0.00  0.00    +0.000 HD
ATOM     49  H41 UNL     1      -3.196  -0.814   1.779  0.00  0.00    +0.000 HD
ATOM     50  H52 UNL     1      -2.782   2.508   3.919  0.00  0.00    +0.000 HD
TER 
