REMARK  Name = lvtkl_conformers\LVTKL_12.pdb
REMARK                            x       y       z     vdW  Elec       q    Type
REMARK                         _______ _______ _______ _____ _____    ______ ____
ATOM      1  N   LEU A   1       2.100  -0.699  -2.088  0.00  0.00    +0.000 NA
ATOM      2  CA  LEU A   1       2.554  -1.304  -0.833  0.00  0.00    +0.000 C 
ATOM      3  C   LEU A   1       2.718  -0.250   0.239  0.00  0.00    +0.000 C 
ATOM      4  O   LEU A   1       2.015  -0.323   1.283  0.00  0.00    +0.000 OA
ATOM      5  CB  LEU A   1       3.853  -2.103  -1.073  0.00  0.00    +0.000 C 
ATOM      6  CG  LEU A   1       4.424  -2.793   0.190  0.00  0.00    +0.000 C 
ATOM      7  CD1 LEU A   1       3.459  -3.845   0.760  0.00  0.00    +0.000 C 
ATOM      8  CD2 LEU A   1       5.773  -3.446  -0.138  0.00  0.00    +0.000 C 
ATOM      9  N   VAL A   2       3.657   0.825   0.077  0.00  0.00    +0.000 N 
ATOM     10  CA  VAL A   2       3.762   1.919   1.055  0.00  0.00    +0.000 C 
ATOM     11  C   VAL A   2       2.487   2.727   1.087  0.00  0.00    +0.000 C 
ATOM     12  O   VAL A   2       2.142   3.285   2.164  0.00  0.00    +0.000 OA
ATOM     13  CB  VAL A   2       5.000   2.827   0.805  0.00  0.00    +0.000 C 
ATOM     14  CG1 VAL A   2       4.948   3.590  -0.530  0.00  0.00    +0.000 C 
ATOM     15  CG2 VAL A   2       6.309   2.032   0.921  0.00  0.00    +0.000 C 
ATOM     16  N   THR A   3       1.687   2.884  -0.096  0.00  0.00    +0.000 N 
ATOM     17  CA  THR A   3       0.308   3.373  -0.062  0.00  0.00    +0.000 C 
ATOM     18  C   THR A   3      -0.576   2.393  -0.797  0.00  0.00    +0.000 C 
ATOM     19  O   THR A   3      -0.866   2.567  -2.012  0.00  0.00    +0.000 OA
ATOM     20  CB  THR A   3       0.233   4.846  -0.548  0.00  0.00    +0.000 C 
ATOM     21  OG1 THR A   3      -1.085   5.333  -0.483  0.00  0.00    +0.000 OA
ATOM     22  CG2 THR A   3       0.854   5.109  -1.931  0.00  0.00    +0.000 C 
ATOM     23  N   LYS A   4      -0.998   1.197  -0.127  0.00  0.00    +0.000 N 
ATOM     24  CA  LYS A   4      -1.692   0.111  -0.825  0.00  0.00    +0.000 C 
ATOM     25  C   LYS A   4      -3.149   0.459  -0.981  0.00  0.00    +0.000 C 
ATOM     26  O   LYS A   4      -3.680   0.387  -2.123  0.00  0.00    +0.000 OA
ATOM     27  CB  LYS A   4      -1.515  -1.212  -0.054  0.00  0.00    +0.000 C 
ATOM     28  CG  LYS A   4      -1.921  -2.432  -0.897  0.00  0.00    +0.000 C 
ATOM     29  CD  LYS A   4      -1.836  -3.749  -0.110  0.00  0.00    +0.000 C 
ATOM     30  CE  LYS A   4      -0.392  -4.155   0.211  0.00  0.00    +0.000 C 
ATOM     31  NZ  LYS A   4      -0.365  -5.487   0.809  0.00  0.00    +0.000 NA
ATOM     32  N   LEU A   5      -3.929   0.861   0.156  0.00  0.00    +0.000 N 
ATOM     33  CA  LEU A   5      -5.359   1.178   0.054  0.00  0.00    +0.000 C 
ATOM     34  C   LEU A   5      -5.834   2.002   1.222  0.00  0.00    +0.000 C 
ATOM     35  O   LEU A   5      -5.402   1.783   2.387  0.00  0.00    +0.000 OA
ATOM     36  CB  LEU A   5      -6.220  -0.094  -0.152  0.00  0.00    +0.000 C 
ATOM     37  CG  LEU A   5      -6.412  -1.009   1.086  0.00  0.00    +0.000 C 
ATOM     38  CD1 LEU A   5      -7.451  -2.094   0.768  0.00  0.00    +0.000 C 
ATOM     39  CD2 LEU A   5      -5.103  -1.671   1.538  0.00  0.00    +0.000 C 
ATOM     40  OXT LEU A   5      -6.799   2.985   1.020  0.00  0.00    +0.000 OA
ATOM     41  H1  UNL     1       1.210  -0.180  -1.908  0.00  0.00    +0.000 HD
ATOM     42  H2  UNL     1       2.803  -0.001  -2.422  0.00  0.00    +0.000 HD
ATOM     43  H13 UNL     1       4.272   0.819  -0.765  0.00  0.00    +0.000 HD
ATOM     44  H22 UNL     1       2.086   2.591  -1.017  0.00  0.00    +0.000 HD
ATOM     45  H25 UNL     1      -1.600   4.921  -1.224  0.00  0.00    +0.000 HD
ATOM     46  H29 UNL     1      -0.764   1.086   0.887  0.00  0.00    +0.000 HD
ATOM     47  H39 UNL     1      -0.603  -6.183   0.066  0.00  0.00    +0.000 HD
ATOM     48  H40 UNL     1       0.621  -5.686   1.095  0.00  0.00    +0.000 HD
ATOM     49  H41 UNL     1      -3.431   0.989   1.067  0.00  0.00    +0.000 HD
ATOM     50  H52 UNL     1      -7.146   3.539   1.794  0.00  0.00    +0.000 HD
TER 
