REMARK  Name = lvtkl_conformers\LVTKL_05.pdb
REMARK                            x       y       z     vdW  Elec       q    Type
REMARK                         _______ _______ _______ _____ _____    ______ ____
ATOM      1  N   LEU A   1      -1.207  -2.282   1.502  0.00  0.00    +0.000 NA
ATOM      2  CA  LEU A   1      -2.154  -2.320   0.385  0.00  0.00    +0.000 C 
ATOM      3  C   LEU A   1      -2.673  -0.933   0.088  0.00  0.00    +0.000 C 
ATOM      4  O   LEU A   1      -2.410  -0.406  -1.026  0.00  0.00    +0.000 OA
ATOM      5  CB  LEU A   1      -3.283  -3.331   0.697  0.00  0.00    +0.000 C 
ATOM      6  CG  LEU A   1      -4.243  -3.686  -0.469  0.00  0.00    +0.000 C 
ATOM      7  CD1 LEU A   1      -5.240  -2.566  -0.795  0.00  0.00    +0.000 C 
ATOM      8  CD2 LEU A   1      -3.507  -4.155  -1.732  0.00  0.00    +0.000 C 
ATOM      9  N   VAL A   2      -3.438  -0.207   1.064  0.00  0.00    +0.000 N 
ATOM     10  CA  VAL A   2      -3.806   1.201   0.874  0.00  0.00    +0.000 C 
ATOM     11  C   VAL A   2      -2.565   2.049   1.004  0.00  0.00    +0.000 C 
ATOM     12  O   VAL A   2      -2.349   2.965   0.165  0.00  0.00    +0.000 OA
ATOM     13  CB  VAL A   2      -4.901   1.633   1.889  0.00  0.00    +0.000 C 
ATOM     14  CG1 VAL A   2      -5.268   3.119   1.732  0.00  0.00    +0.000 C 
ATOM     15  CG2 VAL A   2      -6.170   0.780   1.724  0.00  0.00    +0.000 C 
ATOM     16  N   THR A   3      -1.631   1.808   2.068  0.00  0.00    +0.000 N 
ATOM     17  CA  THR A   3      -0.270   2.365   2.059  0.00  0.00    +0.000 C 
ATOM     18  C   THR A   3       0.493   1.904   0.838  0.00  0.00    +0.000 C 
ATOM     19  O   THR A   3       0.134   0.856   0.234  0.00  0.00    +0.000 OA
ATOM     20  CB  THR A   3       0.484   2.006   3.369  0.00  0.00    +0.000 C 
ATOM     21  OG1 THR A   3       1.680   2.736   3.458  0.00  0.00    +0.000 OA
ATOM     22  CG2 THR A   3       0.812   0.511   3.486  0.00  0.00    +0.000 C 
ATOM     23  N   LYS A   4       1.654   2.624   0.396  0.00  0.00    +0.000 N 
ATOM     24  CA  LYS A   4       2.473   2.158  -0.728  0.00  0.00    +0.000 C 
ATOM     25  C   LYS A   4       3.061   0.809  -0.394  0.00  0.00    +0.000 C 
ATOM     26  O   LYS A   4       3.913   0.708   0.530  0.00  0.00    +0.000 OA
ATOM     27  CB  LYS A   4       3.575   3.186  -1.058  0.00  0.00    +0.000 C 
ATOM     28  CG  LYS A   4       4.336   2.825  -2.346  0.00  0.00    +0.000 C 
ATOM     29  CD  LYS A   4       5.491   3.795  -2.642  0.00  0.00    +0.000 C 
ATOM     30  CE  LYS A   4       5.005   5.178  -3.093  0.00  0.00    +0.000 C 
ATOM     31  NZ  LYS A   4       6.139   5.993  -3.517  0.00  0.00    +0.000 NA
ATOM     32  N   LEU A   5       2.601  -0.362  -1.085  0.00  0.00    +0.000 N 
ATOM     33  CA  LEU A   5       2.935  -1.716  -0.636  0.00  0.00    +0.000 C 
ATOM     34  C   LEU A   5       4.291  -2.090  -1.160  0.00  0.00    +0.000 C 
ATOM     35  O   LEU A   5       5.178  -2.512  -0.371  0.00  0.00    +0.000 OA
ATOM     36  CB  LEU A   5       1.854  -2.707  -1.123  0.00  0.00    +0.000 C 
ATOM     37  CG  LEU A   5       2.063  -4.172  -0.664  0.00  0.00    +0.000 C 
ATOM     38  CD1 LEU A   5       0.994  -5.070  -1.301  0.00  0.00    +0.000 C 
ATOM     39  CD2 LEU A   5       2.017  -4.317   0.865  0.00  0.00    +0.000 C 
ATOM     40  OXT LEU A   5       4.566  -1.984  -2.521  0.00  0.00    +0.000 OA
ATOM     41  H1  UNL     1      -1.681  -1.917   2.360  0.00  0.00    +0.000 HD
ATOM     42  H2  UNL     1      -0.430  -1.622   1.268  0.00  0.00    +0.000 HD
ATOM     43  H13 UNL     1      -3.627  -0.659   1.987  0.00  0.00    +0.000 HD
ATOM     44  H22 UNL     1      -1.939   1.199   2.858  0.00  0.00    +0.000 HD
ATOM     45  H25 UNL     1       1.432   3.670   3.686  0.00  0.00    +0.000 HD
ATOM     46  H29 UNL     1       1.913   3.506   0.895  0.00  0.00    +0.000 HD
ATOM     47  H39 UNL     1       5.762   6.897  -3.883  0.00  0.00    +0.000 HD
ATOM     48  H40 UNL     1       6.706   6.229  -2.670  0.00  0.00    +0.000 HD
ATOM     49  H41 UNL     1       1.980  -0.239  -1.917  0.00  0.00    +0.000 HD
ATOM     50  H52 UNL     1       5.475  -2.237  -2.888  0.00  0.00    +0.000 HD
TER 
