REMARK  Name = lvtkl_conformers\LVTKL_06.pdb
REMARK                            x       y       z     vdW  Elec       q    Type
REMARK                         _______ _______ _______ _____ _____    ______ ____
ATOM      1  N   LEU A   1      -1.745  -0.409   4.260  0.00  0.00    +0.000 NA
ATOM      2  CA  LEU A   1      -2.374  -0.211   2.951  0.00  0.00    +0.000 C 
ATOM      3  C   LEU A   1      -2.713  -1.536   2.305  0.00  0.00    +0.000 C 
ATOM      4  O   LEU A   1      -1.938  -2.523   2.444  0.00  0.00    +0.000 OA
ATOM      5  CB  LEU A   1      -1.454   0.604   2.011  0.00  0.00    +0.000 C 
ATOM      6  CG  LEU A   1      -1.313   2.113   2.333  0.00  0.00    +0.000 C 
ATOM      7  CD1 LEU A   1      -2.643   2.870   2.217  0.00  0.00    +0.000 C 
ATOM      8  CD2 LEU A   1      -0.642   2.380   3.685  0.00  0.00    +0.000 C 
ATOM      9  N   VAL A   2      -3.873  -1.647   1.466  0.00  0.00    +0.000 N 
ATOM     10  CA  VAL A   2      -4.114  -2.817   0.613  0.00  0.00    +0.000 C 
ATOM     11  C   VAL A   2      -3.181  -2.754  -0.571  0.00  0.00    +0.000 C 
ATOM     12  O   VAL A   2      -2.538  -3.783  -0.913  0.00  0.00    +0.000 OA
ATOM     13  CB  VAL A   2      -5.600  -2.878   0.164  0.00  0.00    +0.000 C 
ATOM     14  CG1 VAL A   2      -5.867  -4.080  -0.758  0.00  0.00    +0.000 C 
ATOM     15  CG2 VAL A   2      -6.538  -2.956   1.380  0.00  0.00    +0.000 C 
ATOM     16  N   THR A   3      -3.019  -1.526  -1.299  0.00  0.00    +0.000 N 
ATOM     17  CA  THR A   3      -1.899  -1.296  -2.225  0.00  0.00    +0.000 C 
ATOM     18  C   THR A   3      -0.568  -1.447  -1.516  0.00  0.00    +0.000 C 
ATOM     19  O   THR A   3      -0.522  -1.445  -0.256  0.00  0.00    +0.000 OA
ATOM     20  CB  THR A   3      -2.033   0.087  -2.916  0.00  0.00    +0.000 C 
ATOM     21  OG1 THR A   3      -1.080   0.196  -3.942  0.00  0.00    +0.000 OA
ATOM     22  CG2 THR A   3      -1.880   1.268  -1.943  0.00  0.00    +0.000 C 
ATOM     23  N   LYS A   4       0.648  -1.561  -2.272  0.00  0.00    +0.000 N 
ATOM     24  CA  LYS A   4       1.967  -1.554  -1.627  0.00  0.00    +0.000 C 
ATOM     25  C   LYS A   4       2.138  -0.290  -0.823  0.00  0.00    +0.000 C 
ATOM     26  O   LYS A   4       2.453  -0.373   0.395  0.00  0.00    +0.000 OA
ATOM     27  CB  LYS A   4       3.083  -1.702  -2.686  0.00  0.00    +0.000 C 
ATOM     28  CG  LYS A   4       4.513  -1.668  -2.112  0.00  0.00    +0.000 C 
ATOM     29  CD  LYS A   4       4.801  -2.843  -1.162  0.00  0.00    +0.000 C 
ATOM     30  CE  LYS A   4       6.293  -2.954  -0.802  0.00  0.00    +0.000 C 
ATOM     31  NZ  LYS A   4       6.757  -1.831   0.013  0.00  0.00    +0.000 NA
ATOM     32  N   LEU A   5       1.930   0.995  -1.430  0.00  0.00    +0.000 N 
ATOM     33  CA  LEU A   5       1.935   2.233  -0.645  0.00  0.00    +0.000 C 
ATOM     34  C   LEU A   5       1.190   3.314  -1.381  0.00  0.00    +0.000 C 
ATOM     35  O   LEU A   5       1.569   3.685  -2.525  0.00  0.00    +0.000 OA
ATOM     36  CB  LEU A   5       3.388   2.657  -0.340  0.00  0.00    +0.000 C 
ATOM     37  CG  LEU A   5       3.508   3.915   0.556  0.00  0.00    +0.000 C 
ATOM     38  CD1 LEU A   5       4.977   4.344   0.656  0.00  0.00    +0.000 C 
ATOM     39  CD2 LEU A   5       2.937   3.678   1.963  0.00  0.00    +0.000 C 
ATOM     40  OXT LEU A   5       0.081   3.913  -0.791  0.00  0.00    +0.000 OA
ATOM     41  H1  UNL     1      -2.390  -0.969   4.864  0.00  0.00    +0.000 HD
ATOM     42  H2  UNL     1      -0.858  -0.954   4.150  0.00  0.00    +0.000 HD
ATOM     43  H13 UNL     1      -4.467  -0.796   1.337  0.00  0.00    +0.000 HD
ATOM     44  H22 UNL     1      -3.725  -0.773  -1.140  0.00  0.00    +0.000 HD
ATOM     45  H25 UNL     1      -1.385   0.922  -4.546  0.00  0.00    +0.000 HD
ATOM     46  H29 UNL     1       0.581  -1.666  -3.309  0.00  0.00    +0.000 HD
ATOM     47  H39 UNL     1       6.764  -0.963  -0.569  0.00  0.00    +0.000 HD
ATOM     48  H40 UNL     1       6.096  -1.683   0.810  0.00  0.00    +0.000 HD
ATOM     49  H41 UNL     1       1.715   1.030  -2.453  0.00  0.00    +0.000 HD
ATOM     50  H52 UNL     1      -0.434   4.640  -1.272  0.00  0.00    +0.000 HD
TER 
