REMARK  Name = lvtkl_conformers\LVTKL_03.pdb
REMARK                            x       y       z     vdW  Elec       q    Type
REMARK                         _______ _______ _______ _____ _____    ______ ____
ATOM      1  N   LEU A   1      -4.963   1.000   4.116  0.00  0.00    +0.000 NA
ATOM      2  CA  LEU A   1      -4.321   0.914   2.803  0.00  0.00    +0.000 C 
ATOM      3  C   LEU A   1      -4.235  -0.520   2.343  0.00  0.00    +0.000 C 
ATOM      4  O   LEU A   1      -4.026  -1.438   3.182  0.00  0.00    +0.000 OA
ATOM      5  CB  LEU A   1      -2.936   1.607   2.802  0.00  0.00    +0.000 C 
ATOM      6  CG  LEU A   1      -1.806   0.896   3.594  0.00  0.00    +0.000 C 
ATOM      7  CD1 LEU A   1      -0.484   1.649   3.391  0.00  0.00    +0.000 C 
ATOM      8  CD2 LEU A   1      -2.107   0.791   5.097  0.00  0.00    +0.000 C 
ATOM      9  N   VAL A   2      -4.365  -0.833   0.948  0.00  0.00    +0.000 N 
ATOM     10  CA  VAL A   2      -4.274  -2.204   0.435  0.00  0.00    +0.000 C 
ATOM     11  C   VAL A   2      -2.832  -2.507   0.120  0.00  0.00    +0.000 C 
ATOM     12  O   VAL A   2      -2.258  -3.463   0.709  0.00  0.00    +0.000 OA
ATOM     13  CB  VAL A   2      -5.188  -2.386  -0.808  0.00  0.00    +0.000 C 
ATOM     14  CG1 VAL A   2      -6.653  -2.078  -0.460  0.00  0.00    +0.000 C 
ATOM     15  CG2 VAL A   2      -5.088  -3.811  -1.379  0.00  0.00    +0.000 C 
ATOM     16  N   THR A   3      -2.114  -1.713  -0.836  0.00  0.00    +0.000 N 
ATOM     17  CA  THR A   3      -0.681  -1.905  -1.089  0.00  0.00    +0.000 C 
ATOM     18  C   THR A   3       0.130  -1.305   0.030  0.00  0.00    +0.000 C 
ATOM     19  O   THR A   3      -0.386  -0.433   0.781  0.00  0.00    +0.000 OA
ATOM     20  CB  THR A   3      -0.262  -1.285  -2.442  0.00  0.00    +0.000 C 
ATOM     21  OG1 THR A   3      -0.538   0.093  -2.448  0.00  0.00    +0.000 OA
ATOM     22  CG2 THR A   3      -0.980  -1.967  -3.613  0.00  0.00    +0.000 C 
ATOM     23  N   LYS A   4       1.503  -1.684   0.202  0.00  0.00    +0.000 N 
ATOM     24  CA  LYS A   4       2.370  -1.058   1.211  0.00  0.00    +0.000 C 
ATOM     25  C   LYS A   4       2.473   0.434   1.003  0.00  0.00    +0.000 C 
ATOM     26  O   LYS A   4       2.645   1.181   2.004  0.00  0.00    +0.000 OA
ATOM     27  CB  LYS A   4       3.765  -1.719   1.243  0.00  0.00    +0.000 C 
ATOM     28  CG  LYS A   4       4.604  -1.464  -0.024  0.00  0.00    +0.000 C 
ATOM     29  CD  LYS A   4       5.916  -2.259   0.019  0.00  0.00    +0.000 C 
ATOM     30  CE  LYS A   4       6.858  -1.907  -1.146  0.00  0.00    +0.000 C 
ATOM     31  NZ  LYS A   4       6.333  -2.337  -2.442  0.00  0.00    +0.000 NA
ATOM     32  N   LEU A   5       2.416   1.002  -0.316  0.00  0.00    +0.000 N 
ATOM     33  CA  LEU A   5       2.391   2.450  -0.540  0.00  0.00    +0.000 C 
ATOM     34  C   LEU A   5       1.076   3.003  -0.066  0.00  0.00    +0.000 C 
ATOM     35  O   LEU A   5       1.052   3.960   0.754  0.00  0.00    +0.000 OA
ATOM     36  CB  LEU A   5       2.613   2.759  -2.037  0.00  0.00    +0.000 C 
ATOM     37  CG  LEU A   5       2.656   4.268  -2.383  0.00  0.00    +0.000 C 
ATOM     38  CD1 LEU A   5       3.866   4.971  -1.749  0.00  0.00    +0.000 C 
ATOM     39  CD2 LEU A   5       2.687   4.452  -3.905  0.00  0.00    +0.000 C 
ATOM     40  OXT LEU A   5      -0.118   2.465  -0.538  0.00  0.00    +0.000 OA
ATOM     41  H1  UNL     1      -5.927   0.601   4.039  0.00  0.00    +0.000 HD
ATOM     42  H2  UNL     1      -5.088   2.011   4.358  0.00  0.00    +0.000 HD
ATOM     43  H13 UNL     1      -4.411  -0.043   0.265  0.00  0.00    +0.000 HD
ATOM     44  H22 UNL     1      -2.606  -0.904  -1.278  0.00  0.00    +0.000 HD
ATOM     45  H25 UNL     1       0.003   0.491  -3.179  0.00  0.00    +0.000 HD
ATOM     46  H29 UNL     1       1.872  -2.462  -0.390  0.00  0.00    +0.000 HD
ATOM     47  H39 UNL     1       5.512  -1.743  -2.695  0.00  0.00    +0.000 HD
ATOM     48  H40 UNL     1       6.011  -3.330  -2.376  0.00  0.00    +0.000 HD
ATOM     49  H41 UNL     1       2.385   0.357  -1.138  0.00  0.00    +0.000 HD
ATOM     50  H52 UNL     1      -1.011   2.824  -0.223  0.00  0.00    +0.000 HD
TER 
