REMARK  Name = lvtkl_conformers\LVTKL_09.pdb
REMARK                            x       y       z     vdW  Elec       q    Type
REMARK                         _______ _______ _______ _____ _____    ______ ____
ATOM      1  N   LEU A   1       5.674   1.783   1.892  0.00  0.00    +0.000 NA
ATOM      2  CA  LEU A   1       4.707   2.661   1.228  0.00  0.00    +0.000 C 
ATOM      3  C   LEU A   1       4.084   1.942   0.054  0.00  0.00    +0.000 C 
ATOM      4  O   LEU A   1       4.743   1.799  -1.012  0.00  0.00    +0.000 OA
ATOM      5  CB  LEU A   1       5.382   3.977   0.776  0.00  0.00    +0.000 C 
ATOM      6  CG  LEU A   1       5.583   5.003   1.918  0.00  0.00    +0.000 C 
ATOM      7  CD1 LEU A   1       6.594   4.518   2.969  0.00  0.00    +0.000 C 
ATOM      8  CD2 LEU A   1       6.044   6.347   1.338  0.00  0.00    +0.000 C 
ATOM      9  N   VAL A   2       2.771   1.372   0.176  0.00  0.00    +0.000 N 
ATOM     10  CA  VAL A   2       2.151   0.557  -0.878  0.00  0.00    +0.000 C 
ATOM     11  C   VAL A   2       0.723   0.986  -1.117  0.00  0.00    +0.000 C 
ATOM     12  O   VAL A   2       0.110   1.670  -0.252  0.00  0.00    +0.000 OA
ATOM     13  CB  VAL A   2       2.232  -0.957  -0.542  0.00  0.00    +0.000 C 
ATOM     14  CG1 VAL A   2       1.511  -1.320   0.766  0.00  0.00    +0.000 C 
ATOM     15  CG2 VAL A   2       3.688  -1.439  -0.495  0.00  0.00    +0.000 C 
ATOM     16  N   THR A   3       0.048   0.572  -2.313  0.00  0.00    +0.000 N 
ATOM     17  CA  THR A   3      -1.393   0.778  -2.502  0.00  0.00    +0.000 C 
ATOM     18  C   THR A   3      -2.175  -0.137  -1.594  0.00  0.00    +0.000 C 
ATOM     19  O   THR A   3      -3.203   0.307  -1.015  0.00  0.00    +0.000 OA
ATOM     20  CB  THR A   3      -1.814   0.552  -3.972  0.00  0.00    +0.000 C 
ATOM     21  OG1 THR A   3      -1.452  -0.740  -4.388  0.00  0.00    +0.000 OA
ATOM     22  CG2 THR A   3      -1.181   1.594  -4.901  0.00  0.00    +0.000 C 
ATOM     23  N   LYS A   4      -1.795  -1.514  -1.435  0.00  0.00    +0.000 N 
ATOM     24  CA  LYS A   4      -2.655  -2.490  -0.764  0.00  0.00    +0.000 C 
ATOM     25  C   LYS A   4      -2.277  -2.571   0.692  0.00  0.00    +0.000 C 
ATOM     26  O   LYS A   4      -1.263  -3.234   1.044  0.00  0.00    +0.000 OA
ATOM     27  CB  LYS A   4      -2.555  -3.872  -1.446  0.00  0.00    +0.000 C 
ATOM     28  CG  LYS A   4      -2.845  -3.851  -2.961  0.00  0.00    +0.000 C 
ATOM     29  CD  LYS A   4      -4.203  -3.248  -3.361  0.00  0.00    +0.000 C 
ATOM     30  CE  LYS A   4      -5.393  -4.012  -2.768  0.00  0.00    +0.000 C 
ATOM     31  NZ  LYS A   4      -6.642  -3.496  -3.318  0.00  0.00    +0.000 NA
ATOM     32  N   LEU A   5      -3.041  -1.850   1.670  0.00  0.00    +0.000 N 
ATOM     33  CA  LEU A   5      -2.697  -1.853   3.097  0.00  0.00    +0.000 C 
ATOM     34  C   LEU A   5      -3.918  -1.627   3.956  0.00  0.00    +0.000 C 
ATOM     35  O   LEU A   5      -3.793  -1.488   5.202  0.00  0.00    +0.000 OA
ATOM     36  CB  LEU A   5      -1.561  -0.842   3.397  0.00  0.00    +0.000 C 
ATOM     37  CG  LEU A   5      -1.702   0.551   2.730  0.00  0.00    +0.000 C 
ATOM     38  CD1 LEU A   5      -2.955   1.306   3.198  0.00  0.00    +0.000 C 
ATOM     39  CD2 LEU A   5      -0.455   1.394   3.028  0.00  0.00    +0.000 C 
ATOM     40  OXT LEU A   5      -5.192  -1.636   3.394  0.00  0.00    +0.000 OA
ATOM     41  H1  UNL     1       6.383   1.454   1.196  0.00  0.00    +0.000 HD
ATOM     42  H2  UNL     1       5.169   0.939   2.248  0.00  0.00    +0.000 HD
ATOM     43  H13 UNL     1       2.283   1.458   1.096  0.00  0.00    +0.000 HD
ATOM     44  H22 UNL     1       0.596   0.048  -3.032  0.00  0.00    +0.000 HD
ATOM     45  H25 UNL     1      -2.015  -0.957  -5.177  0.00  0.00    +0.000 HD
ATOM     46  H29 UNL     1      -0.854  -1.822  -1.770  0.00  0.00    +0.000 HD
ATOM     47  H39 UNL     1      -7.421  -4.086  -2.945  0.00  0.00    +0.000 HD
ATOM     48  H40 UNL     1      -6.792  -2.532  -2.940  0.00  0.00    +0.000 HD
ATOM     49  H41 UNL     1      -3.797  -1.213   1.331  0.00  0.00    +0.000 HD
ATOM     50  H52 UNL     1      -6.015  -1.503   3.970  0.00  0.00    +0.000 HD
TER 
