REMARK  Name = lvtkl_conformers\LVTKL_04.pdb
REMARK                            x       y       z     vdW  Elec       q    Type
REMARK                         _______ _______ _______ _____ _____    ______ ____
ATOM      1  N   LEU A   1       1.985   4.524   0.749  0.00  0.00    +0.000 NA
ATOM      2  CA  LEU A   1       3.015   3.525   1.042  0.00  0.00    +0.000 C 
ATOM      3  C   LEU A   1       3.176   2.583  -0.133  0.00  0.00    +0.000 C 
ATOM      4  O   LEU A   1       4.202   2.679  -0.860  0.00  0.00    +0.000 OA
ATOM      5  CB  LEU A   1       2.669   2.801   2.364  0.00  0.00    +0.000 C 
ATOM      6  CG  LEU A   1       3.639   1.659   2.751  0.00  0.00    +0.000 C 
ATOM      7  CD1 LEU A   1       3.102   0.912   3.978  0.00  0.00    +0.000 C 
ATOM      8  CD2 LEU A   1       5.056   2.178   3.030  0.00  0.00    +0.000 C 
ATOM      9  N   VAL A   2       2.156   1.622  -0.448  0.00  0.00    +0.000 N 
ATOM     10  CA  VAL A   2       2.153   0.815  -1.676  0.00  0.00    +0.000 C 
ATOM     11  C   VAL A   2       0.783   0.859  -2.324  0.00  0.00    +0.000 C 
ATOM     12  O   VAL A   2      -0.129   1.565  -1.815  0.00  0.00    +0.000 OA
ATOM     13  CB  VAL A   2       2.623  -0.640  -1.381  0.00  0.00    +0.000 C 
ATOM     14  CG1 VAL A   2       4.122  -0.681  -1.057  0.00  0.00    +0.000 C 
ATOM     15  CG2 VAL A   2       1.821  -1.314  -0.257  0.00  0.00    +0.000 C 
ATOM     16  N   THR A   3       0.533   0.152  -3.549  0.00  0.00    +0.000 N 
ATOM     17  CA  THR A   3      -0.770   0.196  -4.231  0.00  0.00    +0.000 C 
ATOM     18  C   THR A   3      -1.888  -0.288  -3.333  0.00  0.00    +0.000 C 
ATOM     19  O   THR A   3      -3.038   0.213  -3.464  0.00  0.00    +0.000 OA
ATOM     20  CB  THR A   3      -0.733  -0.587  -5.570  0.00  0.00    +0.000 C 
ATOM     21  OG1 THR A   3      -1.920  -0.371  -6.289  0.00  0.00    +0.000 OA
ATOM     22  CG2 THR A   3      -0.540  -2.096  -5.380  0.00  0.00    +0.000 C 
ATOM     23  N   LYS A   4      -1.663  -1.328  -2.368  0.00  0.00    +0.000 N 
ATOM     24  CA  LYS A   4      -2.722  -1.813  -1.475  0.00  0.00    +0.000 C 
ATOM     25  C   LYS A   4      -3.171  -0.709  -0.549  0.00  0.00    +0.000 C 
ATOM     26  O   LYS A   4      -4.403  -0.472  -0.424  0.00  0.00    +0.000 OA
ATOM     27  CB  LYS A   4      -2.226  -3.035  -0.674  0.00  0.00    +0.000 C 
ATOM     28  CG  LYS A   4      -3.356  -3.712   0.122  0.00  0.00    +0.000 C 
ATOM     29  CD  LYS A   4      -2.853  -4.880   0.984  0.00  0.00    +0.000 C 
ATOM     30  CE  LYS A   4      -2.459  -6.107   0.152  0.00  0.00    +0.000 C 
ATOM     31  NZ  LYS A   4      -2.115  -7.219   1.032  0.00  0.00    +0.000 NA
ATOM     32  N   LEU A   5      -2.211   0.046   0.207  0.00  0.00    +0.000 N 
ATOM     33  CA  LEU A   5      -2.608   1.064   1.186  0.00  0.00    +0.000 C 
ATOM     34  C   LEU A   5      -3.189   2.247   0.466  0.00  0.00    +0.000 C 
ATOM     35  O   LEU A   5      -4.338   2.668   0.769  0.00  0.00    +0.000 OA
ATOM     36  CB  LEU A   5      -1.393   1.474   2.049  0.00  0.00    +0.000 C 
ATOM     37  CG  LEU A   5      -1.763   2.382   3.255  0.00  0.00    +0.000 C 
ATOM     38  CD1 LEU A   5      -0.914   2.030   4.484  0.00  0.00    +0.000 C 
ATOM     39  CD2 LEU A   5      -1.581   3.870   2.917  0.00  0.00    +0.000 C 
ATOM     40  OXT LEU A   5      -2.456   2.888  -0.528  0.00  0.00    +0.000 OA
ATOM     41  H1  UNL     1       1.087   4.043   0.512  0.00  0.00    +0.000 HD
ATOM     42  H2  UNL     1       2.277   5.070  -0.094  0.00  0.00    +0.000 HD
ATOM     43  H13 UNL     1       1.386   1.469   0.239  0.00  0.00    +0.000 HD
ATOM     44  H22 UNL     1       1.343  -0.302  -4.027  0.00  0.00    +0.000 HD
ATOM     45  H25 UNL     1      -1.870   0.547  -6.662  0.00  0.00    +0.000 HD
ATOM     46  H29 UNL     1      -0.723  -1.783  -2.340  0.00  0.00    +0.000 HD
ATOM     47  H39 UNL     1      -1.770  -8.004   0.433  0.00  0.00    +0.000 HD
ATOM     48  H40 UNL     1      -2.993  -7.560   1.487  0.00  0.00    +0.000 HD
ATOM     49  H41 UNL     1      -1.198  -0.164   0.070  0.00  0.00    +0.000 HD
ATOM     50  H52 UNL     1      -2.835   3.690  -1.017  0.00  0.00    +0.000 HD
TER 
