REMARK  Name = lvtkl_conformers\LVTKL_01.pdb
REMARK                            x       y       z     vdW  Elec       q    Type
REMARK                         _______ _______ _______ _____ _____    ______ ____
ATOM      1  N   LEU A   1       6.708   2.703   0.661  0.00  0.00    +0.000 NA
ATOM      2  CA  LEU A   1       5.253   2.788   0.806  0.00  0.00    +0.000 C 
ATOM      3  C   LEU A   1       4.641   1.415   0.916  0.00  0.00    +0.000 C 
ATOM      4  O   LEU A   1       5.246   0.416   0.438  0.00  0.00    +0.000 OA
ATOM      5  CB  LEU A   1       4.626   3.596  -0.355  0.00  0.00    +0.000 C 
ATOM      6  CG  LEU A   1       4.931   3.044  -1.778  0.00  0.00    +0.000 C 
ATOM      7  CD1 LEU A   1       3.844   2.070  -2.261  0.00  0.00    +0.000 C 
ATOM      8  CD2 LEU A   1       5.061   4.198  -2.782  0.00  0.00    +0.000 C 
ATOM      9  N   VAL A   2       3.347   1.259   1.520  0.00  0.00    +0.000 N 
ATOM     10  CA  VAL A   2       2.509   0.080   1.276  0.00  0.00    +0.000 C 
ATOM     11  C   VAL A   2       1.637   0.322   0.068  0.00  0.00    +0.000 C 
ATOM     12  O   VAL A   2       1.043   1.428  -0.063  0.00  0.00    +0.000 OA
ATOM     13  CB  VAL A   2       1.697  -0.305   2.546  0.00  0.00    +0.000 C 
ATOM     14  CG1 VAL A   2       1.099  -1.714   2.414  0.00  0.00    +0.000 C 
ATOM     15  CG2 VAL A   2       0.586   0.697   2.906  0.00  0.00    +0.000 C 
ATOM     16  N   THR A   3       1.487  -0.697  -0.930  0.00  0.00    +0.000 N 
ATOM     17  CA  THR A   3       0.645  -0.500  -2.116  0.00  0.00    +0.000 C 
ATOM     18  C   THR A   3      -0.808  -0.622  -1.737  0.00  0.00    +0.000 C 
ATOM     19  O   THR A   3      -1.625   0.247  -2.145  0.00  0.00    +0.000 OA
ATOM     20  CB  THR A   3       0.999  -1.496  -3.243  0.00  0.00    +0.000 C 
ATOM     21  OG1 THR A   3       0.884  -2.819  -2.783  0.00  0.00    +0.000 OA
ATOM     22  CG2 THR A   3       2.417  -1.253  -3.772  0.00  0.00    +0.000 C 
ATOM     23  N   LYS A   4      -1.264  -1.729  -0.942  0.00  0.00    +0.000 N 
ATOM     24  CA  LYS A   4      -2.648  -1.861  -0.485  0.00  0.00    +0.000 C 
ATOM     25  C   LYS A   4      -2.744  -1.377   0.938  0.00  0.00    +0.000 C 
ATOM     26  O   LYS A   4      -2.482  -2.161   1.891  0.00  0.00    +0.000 OA
ATOM     27  CB  LYS A   4      -3.120  -3.321  -0.620  0.00  0.00    +0.000 C 
ATOM     28  CG  LYS A   4      -3.149  -3.774  -2.088  0.00  0.00    +0.000 C 
ATOM     29  CD  LYS A   4      -3.645  -5.221  -2.208  0.00  0.00    +0.000 C 
ATOM     30  CE  LYS A   4      -3.638  -5.709  -3.661  0.00  0.00    +0.000 C 
ATOM     31  NZ  LYS A   4      -4.592  -4.954  -4.469  0.00  0.00    +0.000 NA
ATOM     32  N   LEU A   5      -3.065  -0.004   1.204  0.00  0.00    +0.000 N 
ATOM     33  CA  LEU A   5      -3.257   0.503   2.567  0.00  0.00    +0.000 C 
ATOM     34  C   LEU A   5      -4.572   0.007   3.097  0.00  0.00    +0.000 C 
ATOM     35  O   LEU A   5      -4.618  -0.607   4.196  0.00  0.00    +0.000 OA
ATOM     36  CB  LEU A   5      -3.204   2.048   2.568  0.00  0.00    +0.000 C 
ATOM     37  CG  LEU A   5      -3.343   2.694   3.969  0.00  0.00    +0.000 C 
ATOM     38  CD1 LEU A   5      -3.505   4.213   3.828  0.00  0.00    +0.000 C 
ATOM     39  CD2 LEU A   5      -2.139   2.383   4.870  0.00  0.00    +0.000 C 
ATOM     40  OXT LEU A   5      -5.743   0.237   2.381  0.00  0.00    +0.000 OA
ATOM     41  H1  UNL     1       7.098   2.243   1.516  0.00  0.00    +0.000 HD
ATOM     42  H2  UNL     1       7.097   3.674   0.654  0.00  0.00    +0.000 HD
ATOM     43  H13 UNL     1       2.909   2.109   1.938  0.00  0.00    +0.000 HD
ATOM     44  H22 UNL     1       1.966  -1.614  -0.782  0.00  0.00    +0.000 HD
ATOM     45  H25 UNL     1       0.799  -3.397  -3.585  0.00  0.00    +0.000 HD
ATOM     46  H29 UNL     1      -0.561  -2.415  -0.586  0.00  0.00    +0.000 HD
ATOM     47  H39 UNL     1      -5.558  -5.211  -4.160  0.00  0.00    +0.000 HD
ATOM     48  H40 UNL     1      -4.500  -5.280  -5.458  0.00  0.00    +0.000 HD
ATOM     49  H41 UNL     1      -3.195   0.642   0.392  0.00  0.00    +0.000 HD
ATOM     50  H52 UNL     1      -6.637  -0.087   2.729  0.00  0.00    +0.000 HD
TER 
