REMARK  Name = lvtkl_conformers\LVTKL_10.pdb
REMARK                            x       y       z     vdW  Elec       q    Type
REMARK                         _______ _______ _______ _____ _____    ______ ____
ATOM      1  N   LEU A   1      -7.571  -0.158  -1.667  0.00  0.00    +0.000 NA
ATOM      2  CA  LEU A   1      -6.628  -0.084  -0.546  0.00  0.00    +0.000 C 
ATOM      3  C   LEU A   1      -5.437   0.778  -0.890  0.00  0.00    +0.000 C 
ATOM      4  O   LEU A   1      -4.920   0.707  -2.039  0.00  0.00    +0.000 OA
ATOM      5  CB  LEU A   1      -6.150  -1.493  -0.137  0.00  0.00    +0.000 C 
ATOM      6  CG  LEU A   1      -7.295  -2.454   0.263  0.00  0.00    +0.000 C 
ATOM      7  CD1 LEU A   1      -7.998  -2.007   1.554  0.00  0.00    +0.000 C 
ATOM      8  CD2 LEU A   1      -6.745  -3.876   0.438  0.00  0.00    +0.000 C 
ATOM      9  N   VAL A   2      -4.850   1.621   0.112  0.00  0.00    +0.000 N 
ATOM     10  CA  VAL A   2      -3.601   2.352  -0.117  0.00  0.00    +0.000 C 
ATOM     11  C   VAL A   2      -2.445   1.416   0.128  0.00  0.00    +0.000 C 
ATOM     12  O   VAL A   2      -2.331   0.851   1.251  0.00  0.00    +0.000 OA
ATOM     13  CB  VAL A   2      -3.521   3.607   0.795  0.00  0.00    +0.000 C 
ATOM     14  CG1 VAL A   2      -4.717   4.541   0.551  0.00  0.00    +0.000 C 
ATOM     15  CG2 VAL A   2      -2.213   4.385   0.569  0.00  0.00    +0.000 C 
ATOM     16  N   THR A   3      -1.483   1.164  -0.907  0.00  0.00    +0.000 N 
ATOM     17  CA  THR A   3      -0.370   0.223  -0.723  0.00  0.00    +0.000 C 
ATOM     18  C   THR A   3       0.594   0.728   0.325  0.00  0.00    +0.000 C 
ATOM     19  O   THR A   3       0.784   1.968   0.460  0.00  0.00    +0.000 OA
ATOM     20  CB  THR A   3       0.349  -0.081  -2.065  0.00  0.00    +0.000 C 
ATOM     21  OG1 THR A   3       1.271  -1.127  -1.892  0.00  0.00    +0.000 OA
ATOM     22  CG2 THR A   3       1.086   1.129  -2.652  0.00  0.00    +0.000 C 
ATOM     23  N   LYS A   4       1.326  -0.208   1.131  0.00  0.00    +0.000 N 
ATOM     24  CA  LYS A   4       2.292   0.215   2.154  0.00  0.00    +0.000 C 
ATOM     25  C   LYS A   4       3.425   1.028   1.570  0.00  0.00    +0.000 C 
ATOM     26  O   LYS A   4       4.022   1.856   2.311  0.00  0.00    +0.000 OA
ATOM     27  CB  LYS A   4       2.814  -0.985   2.984  0.00  0.00    +0.000 C 
ATOM     28  CG  LYS A   4       3.903  -1.858   2.321  0.00  0.00    +0.000 C 
ATOM     29  CD  LYS A   4       3.380  -2.720   1.162  0.00  0.00    +0.000 C 
ATOM     30  CE  LYS A   4       4.438  -3.713   0.668  0.00  0.00    +0.000 C 
ATOM     31  NZ  LYS A   4       4.699  -4.739   1.674  0.00  0.00    +0.000 NA
ATOM     32  N   LEU A   5       3.865   0.832   0.216  0.00  0.00    +0.000 N 
ATOM     33  CA  LEU A   5       5.047   1.511  -0.324  0.00  0.00    +0.000 C 
ATOM     34  C   LEU A   5       4.745   2.967  -0.540  0.00  0.00    +0.000 C 
ATOM     35  O   LEU A   5       3.689   3.319  -1.130  0.00  0.00    +0.000 OA
ATOM     36  CB  LEU A   5       5.500   0.872  -1.655  0.00  0.00    +0.000 C 
ATOM     37  CG  LEU A   5       5.892  -0.622  -1.537  0.00  0.00    +0.000 C 
ATOM     38  CD1 LEU A   5       7.131  -0.829  -0.652  0.00  0.00    +0.000 C 
ATOM     39  CD2 LEU A   5       6.146  -1.206  -2.933  0.00  0.00    +0.000 C 
ATOM     40  OXT LEU A   5       5.653   3.931  -0.112  0.00  0.00    +0.000 OA
ATOM     41  H1  UNL     1      -7.098  -0.577  -2.501  0.00  0.00    +0.000 HD
ATOM     42  H2  UNL     1      -7.866   0.813  -1.923  0.00  0.00    +0.000 HD
ATOM     43  H13 UNL     1      -5.234   1.576   1.084  0.00  0.00    +0.000 HD
ATOM     44  H22 UNL     1      -1.642   1.603  -1.842  0.00  0.00    +0.000 HD
ATOM     45  H25 UNL     1       0.746  -1.965  -1.806  0.00  0.00    +0.000 HD
ATOM     46  H29 UNL     1       1.065  -1.216   1.055  0.00  0.00    +0.000 HD
ATOM     47  H39 UNL     1       5.473  -5.344   1.317  0.00  0.00    +0.000 HD
ATOM     48  H40 UNL     1       3.853  -5.350   1.745  0.00  0.00    +0.000 HD
ATOM     49  H41 UNL     1       3.322   0.192  -0.403  0.00  0.00    +0.000 HD
ATOM     50  H52 UNL     1       5.471   4.917  -0.258  0.00  0.00    +0.000 HD
TER 
