REMARK  Name = lvtkl_conformers\LVTKL_11.pdb
REMARK                            x       y       z     vdW  Elec       q    Type
REMARK                         _______ _______ _______ _____ _____    ______ ____
ATOM      1  N   LEU A   1      -7.538   1.273  -1.625  0.00  0.00    +0.000 NA
ATOM      2  CA  LEU A   1      -6.362   0.397  -1.639  0.00  0.00    +0.000 C 
ATOM      3  C   LEU A   1      -5.374   0.798  -0.570  0.00  0.00    +0.000 C 
ATOM      4  O   LEU A   1      -5.084   2.016  -0.410  0.00  0.00    +0.000 OA
ATOM      5  CB  LEU A   1      -5.671   0.429  -3.018  0.00  0.00    +0.000 C 
ATOM      6  CG  LEU A   1      -6.581  -0.012  -4.189  0.00  0.00    +0.000 C 
ATOM      7  CD1 LEU A   1      -5.884   0.275  -5.525  0.00  0.00    +0.000 C 
ATOM      8  CD2 LEU A   1      -6.949  -1.501  -4.104  0.00  0.00    +0.000 C 
ATOM      9  N   VAL A   2      -4.706  -0.209   0.206  0.00  0.00    +0.000 N 
ATOM     10  CA  VAL A   2      -3.483   0.081   0.959  0.00  0.00    +0.000 C 
ATOM     11  C   VAL A   2      -2.321   0.036   0.001  0.00  0.00    +0.000 C 
ATOM     12  O   VAL A   2      -1.980  -1.067  -0.509  0.00  0.00    +0.000 OA
ATOM     13  CB  VAL A   2      -3.303  -0.919   2.133  0.00  0.00    +0.000 C 
ATOM     14  CG1 VAL A   2      -4.509  -0.872   3.085  0.00  0.00    +0.000 C 
ATOM     15  CG2 VAL A   2      -2.016  -0.629   2.925  0.00  0.00    +0.000 C 
ATOM     16  N   THR A   3      -1.641   1.246  -0.364  0.00  0.00    +0.000 N 
ATOM     17  CA  THR A   3      -0.481   1.269  -1.260  0.00  0.00    +0.000 C 
ATOM     18  C   THR A   3       0.756   1.550  -0.445  0.00  0.00    +0.000 C 
ATOM     19  O   THR A   3       1.322   2.677  -0.499  0.00  0.00    +0.000 OA
ATOM     20  CB  THR A   3      -0.701   2.284  -2.407  0.00  0.00    +0.000 C 
ATOM     21  OG1 THR A   3      -0.954   3.563  -1.883  0.00  0.00    +0.000 OA
ATOM     22  CG2 THR A   3      -1.870   1.855  -3.302  0.00  0.00    +0.000 C 
ATOM     23  N   LYS A   4       1.257   0.537   0.439  0.00  0.00    +0.000 N 
ATOM     24  CA  LYS A   4       2.404   0.766   1.323  0.00  0.00    +0.000 C 
ATOM     25  C   LYS A   4       3.669   0.818   0.506  0.00  0.00    +0.000 C 
ATOM     26  O   LYS A   4       4.480   1.767   0.688  0.00  0.00    +0.000 OA
ATOM     27  CB  LYS A   4       2.480  -0.347   2.391  0.00  0.00    +0.000 C 
ATOM     28  CG  LYS A   4       3.585  -0.135   3.443  0.00  0.00    +0.000 C 
ATOM     29  CD  LYS A   4       3.267   1.013   4.416  0.00  0.00    +0.000 C 
ATOM     30  CE  LYS A   4       4.319   1.127   5.525  0.00  0.00    +0.000 C 
ATOM     31  NZ  LYS A   4       4.286  -0.044   6.398  0.00  0.00    +0.000 NA
ATOM     32  N   LEU A   5       3.960  -0.210  -0.455  0.00  0.00    +0.000 N 
ATOM     33  CA  LEU A   5       5.209  -0.228  -1.226  0.00  0.00    +0.000 C 
ATOM     34  C   LEU A   5       5.081  -1.059  -2.478  0.00  0.00    +0.000 C 
ATOM     35  O   LEU A   5       4.414  -2.129  -2.478  0.00  0.00    +0.000 OA
ATOM     36  CB  LEU A   5       6.416  -0.658  -0.357  0.00  0.00    +0.000 C 
ATOM     37  CG  LEU A   5       6.525  -2.169  -0.019  0.00  0.00    +0.000 C 
ATOM     38  CD1 LEU A   5       7.872  -2.448   0.662  0.00  0.00    +0.000 C 
ATOM     39  CD2 LEU A   5       5.384  -2.656   0.885  0.00  0.00    +0.000 C 
ATOM     40  OXT LEU A   5       5.750  -0.665  -3.632  0.00  0.00    +0.000 OA
ATOM     41  H1  UNL     1      -7.245   2.263  -1.796  0.00  0.00    +0.000 HD
ATOM     42  H2  UNL     1      -7.977   1.232  -0.676  0.00  0.00    +0.000 HD
ATOM     43  H13 UNL     1      -4.961  -1.210   0.042  0.00  0.00    +0.000 HD
ATOM     44  H22 UNL     1      -1.935   2.141   0.089  0.00  0.00    +0.000 HD
ATOM     45  H25 UNL     1      -0.788   4.212  -2.616  0.00  0.00    +0.000 HD
ATOM     46  H29 UNL     1       0.770  -0.388   0.456  0.00  0.00    +0.000 HD
ATOM     47  H39 UNL     1       5.062   0.054   7.092  0.00  0.00    +0.000 HD
ATOM     48  H40 UNL     1       3.394  -0.019   6.944  0.00  0.00    +0.000 HD
ATOM     49  H41 UNL     1       3.224  -0.929  -0.637  0.00  0.00    +0.000 HD
ATOM     50  H52 UNL     1       5.695  -1.217  -4.480  0.00  0.00    +0.000 HD
TER 
