REMARK  Name = .\slahs_conformers\SLAHS_01.pdb
REMARK                            x       y       z     vdW  Elec       q    Type
REMARK                         _______ _______ _______ _____ _____    ______ ____
ATOM      1  N   SER A   1       4.860   0.384   2.925  0.00  0.00    +0.000 NA
ATOM      2  CA  SER A   1       5.614   0.278   1.675  0.00  0.00    +0.000 C 
ATOM      3  C   SER A   1       4.752   0.713   0.520  0.00  0.00    +0.000 C 
ATOM      4  O   SER A   1       5.183   1.588  -0.280  0.00  0.00    +0.000 OA
ATOM      5  CB  SER A   1       6.087  -1.166   1.454  0.00  0.00    +0.000 C 
ATOM      6  OG  SER A   1       7.013  -1.522   2.443  0.00  0.00    +0.000 OA
ATOM      7  N   LEU A   2       3.459   0.123   0.320  0.00  0.00    +0.000 N 
ATOM      8  CA  LEU A   2       2.563   0.535  -0.766  0.00  0.00    +0.000 C 
ATOM      9  C   LEU A   2       1.716   1.699  -0.326  0.00  0.00    +0.000 C 
ATOM     10  O   LEU A   2       1.564   1.943   0.903  0.00  0.00    +0.000 OA
ATOM     11  CB  LEU A   2       1.644  -0.631  -1.189  0.00  0.00    +0.000 C 
ATOM     12  CG  LEU A   2       2.400  -1.926  -1.573  0.00  0.00    +0.000 C 
ATOM     13  CD1 LEU A   2       3.281  -1.730  -2.816  0.00  0.00    +0.000 C 
ATOM     14  CD2 LEU A   2       1.396  -3.060  -1.817  0.00  0.00    +0.000 C 
ATOM     15  N   ALA A   3       1.007   2.472  -1.304  0.00  0.00    +0.000 N 
ATOM     16  CA  ALA A   3      -0.262   3.123  -0.978  0.00  0.00    +0.000 C 
ATOM     17  C   ALA A   3      -1.341   2.075  -0.888  0.00  0.00    +0.000 C 
ATOM     18  O   ALA A   3      -1.854   1.610  -1.943  0.00  0.00    +0.000 OA
ATOM     19  CB  ALA A   3      -0.602   4.189  -2.024  0.00  0.00    +0.000 C 
ATOM     20  N   HIS A   4      -1.706   1.533   0.389  0.00  0.00    +0.000 N 
ATOM     21  CA  HIS A   4      -2.561   0.347   0.512  0.00  0.00    +0.000 C 
ATOM     22  C   HIS A   4      -3.990   0.714   0.215  0.00  0.00    +0.000 C 
ATOM     23  O   HIS A   4      -4.475   1.773   0.699  0.00  0.00    +0.000 OA
ATOM     24  CB  HIS A   4      -2.467  -0.261   1.923  0.00  0.00    +0.000 C 
ATOM     25  CG  HIS A   4      -1.093  -0.796   2.199  0.00  0.00    +0.000 C 
ATOM     26  ND1 HIS A   4      -0.648  -1.991   1.761  0.00  0.00    +0.000 NA
ATOM     27  CD2 HIS A   4      -0.092  -0.146   2.886  0.00  0.00    +0.000 C 
ATOM     28  CE1 HIS A   4       0.625  -2.045   2.209  0.00  0.00    +0.000 C 
ATOM     29  NE2 HIS A   4       0.986  -0.942   2.892  0.00  0.00    +0.000 N 
ATOM     30  N   SER A   5      -4.809  -0.161  -0.575  0.00  0.00    +0.000 N 
ATOM     31  CA  SER A   5      -6.221   0.129  -0.844  0.00  0.00    +0.000 C 
ATOM     32  C   SER A   5      -7.029  -0.090   0.404  0.00  0.00    +0.000 C 
ATOM     33  O   SER A   5      -7.873   0.772   0.767  0.00  0.00    +0.000 OA
ATOM     34  CB  SER A   5      -6.743  -0.765  -1.980  0.00  0.00    +0.000 C 
ATOM     35  OG  SER A   5      -8.075  -0.450  -2.290  0.00  0.00    +0.000 OA
ATOM     36  OXT SER A   5      -6.865  -1.257   1.145  0.00  0.00    +0.000 OA
ATOM     37  H1  UNL     1       4.560   1.379   3.045  0.00  0.00    +0.000 HD
ATOM     38  H2  UNL     1       5.508   0.183   3.722  0.00  0.00    +0.000 HD
ATOM     39  H6  UNL     1       7.272  -2.461   2.252  0.00  0.00    +0.000 HD
ATOM     40  H7  UNL     1       3.099  -0.539   1.043  0.00  0.00    +0.000 HD
ATOM     41  H18 UNL     1       1.256   2.337  -2.311  0.00  0.00    +0.000 HD
ATOM     42  H23 UNL     1      -1.320   1.982   1.250  0.00  0.00    +0.000 HD
ATOM     43  H29 UNL     1       1.914  -0.745   3.328  0.00  0.00    +0.000 HD
ATOM     44  H30 UNL     1      -4.384  -1.040  -0.950  0.00  0.00    +0.000 HD
ATOM     45  H34 UNL     1      -8.054   0.403  -2.798  0.00  0.00    +0.000 HD
ATOM     46  H35 UNL     1      -7.409  -1.420   1.983  0.00  0.00    +0.000 HD
TER 
