REMARK  Name = .\slahs_conformers\SLAHS_06.pdb
REMARK                            x       y       z     vdW  Elec       q    Type
REMARK                         _______ _______ _______ _____ _____    ______ ____
ATOM      1  N   SER A   1       4.391   4.384   1.422  0.00  0.00    +0.000 NA
ATOM      2  CA  SER A   1       5.131   3.121   1.368  0.00  0.00    +0.000 C 
ATOM      3  C   SER A   1       4.754   2.361   0.122  0.00  0.00    +0.000 C 
ATOM      4  O   SER A   1       5.650   2.074  -0.718  0.00  0.00    +0.000 OA
ATOM      5  CB  SER A   1       4.890   2.279   2.636  0.00  0.00    +0.000 C 
ATOM      6  OG  SER A   1       5.718   1.146   2.641  0.00  0.00    +0.000 OA
ATOM      7  N   LEU A   2       3.396   1.954  -0.105  0.00  0.00    +0.000 N 
ATOM      8  CA  LEU A   2       3.019   1.048  -1.198  0.00  0.00    +0.000 C 
ATOM      9  C   LEU A   2       1.584   1.257  -1.627  0.00  0.00    +0.000 C 
ATOM     10  O   LEU A   2       0.860   2.100  -1.028  0.00  0.00    +0.000 OA
ATOM     11  CB  LEU A   2       3.331  -0.420  -0.815  0.00  0.00    +0.000 C 
ATOM     12  CG  LEU A   2       2.728  -0.910   0.530  0.00  0.00    +0.000 C 
ATOM     13  CD1 LEU A   2       1.230  -1.224   0.412  0.00  0.00    +0.000 C 
ATOM     14  CD2 LEU A   2       3.474  -2.162   1.011  0.00  0.00    +0.000 C 
ATOM     15  N   ALA A   3       1.050   0.527  -2.742  0.00  0.00    +0.000 N 
ATOM     16  CA  ALA A   3      -0.372   0.583  -3.095  0.00  0.00    +0.000 C 
ATOM     17  C   ALA A   3      -1.176  -0.187  -2.079  0.00  0.00    +0.000 C 
ATOM     18  O   ALA A   3      -1.182  -1.448  -2.110  0.00  0.00    +0.000 OA
ATOM     19  CB  ALA A   3      -0.599   0.031  -4.506  0.00  0.00    +0.000 C 
ATOM     20  N   HIS A   4      -1.873   0.510  -1.035  0.00  0.00    +0.000 N 
ATOM     21  CA  HIS A   4      -2.551  -0.200   0.055  0.00  0.00    +0.000 C 
ATOM     22  C   HIS A   4      -3.860  -0.756  -0.437  0.00  0.00    +0.000 C 
ATOM     23  O   HIS A   4      -4.612  -0.040  -1.153  0.00  0.00    +0.000 OA
ATOM     24  CB  HIS A   4      -2.801   0.733   1.253  0.00  0.00    +0.000 C 
ATOM     25  CG  HIS A   4      -1.511   1.195   1.863  0.00  0.00    +0.000 C 
ATOM     26  ND1 HIS A   4      -0.914   2.367   1.568  0.00  0.00    +0.000 NA
ATOM     27  CD2 HIS A   4      -0.725   0.476   2.735  0.00  0.00    +0.000 C 
ATOM     28  CE1 HIS A   4       0.229   2.337   2.285  0.00  0.00    +0.000 C 
ATOM     29  NE2 HIS A   4       0.371   1.203   2.997  0.00  0.00    +0.000 N 
ATOM     30  N   SER A   5      -4.272  -2.076  -0.053  0.00  0.00    +0.000 N 
ATOM     31  CA  SER A   5      -5.558  -2.642  -0.472  0.00  0.00    +0.000 C 
ATOM     32  C   SER A   5      -6.677  -1.979   0.282  0.00  0.00    +0.000 C 
ATOM     33  O   SER A   5      -6.626  -1.878   1.537  0.00  0.00    +0.000 OA
ATOM     34  CB  SER A   5      -5.579  -4.159  -0.239  0.00  0.00    +0.000 C 
ATOM     35  OG  SER A   5      -6.771  -4.704  -0.734  0.00  0.00    +0.000 OA
ATOM     36  OXT SER A   5      -7.785  -1.497  -0.409  0.00  0.00    +0.000 OA
ATOM     37  H1  UNL     1       3.391   4.198   1.666  0.00  0.00    +0.000 HD
ATOM     38  H2  UNL     1       4.789   4.969   2.192  0.00  0.00    +0.000 HD
ATOM     39  H6  UNL     1       5.258   0.452   2.100  0.00  0.00    +0.000 HD
ATOM     40  H7  UNL     1       2.687   2.182   0.626  0.00  0.00    +0.000 HD
ATOM     41  H18 UNL     1       1.697  -0.069  -3.306  0.00  0.00    +0.000 HD
ATOM     42  H23 UNL     1      -1.896   1.555  -1.059  0.00  0.00    +0.000 HD
ATOM     43  H29 UNL     1       1.171   0.940   3.612  0.00  0.00    +0.000 HD
ATOM     44  H30 UNL     1      -3.637  -2.640   0.557  0.00  0.00    +0.000 HD
ATOM     45  H34 UNL     1      -6.725  -5.678  -0.551  0.00  0.00    +0.000 HD
ATOM     46  H35 UNL     1      -8.551  -1.054   0.084  0.00  0.00    +0.000 HD
TER 
