REMARK  Name = .\slahs_conformers\SLAHS_09.pdb
REMARK                            x       y       z     vdW  Elec       q    Type
REMARK                         _______ _______ _______ _____ _____    ______ ____
ATOM      1  N   SER A   1       5.344  -1.930  -3.041  0.00  0.00    +0.000 NA
ATOM      2  CA  SER A   1       6.000  -1.650  -1.763  0.00  0.00    +0.000 C 
ATOM      3  C   SER A   1       4.996  -1.731  -0.643  0.00  0.00    +0.000 C 
ATOM      4  O   SER A   1       5.241  -2.465   0.353  0.00  0.00    +0.000 OA
ATOM      5  CB  SER A   1       6.651  -0.257  -1.798  0.00  0.00    +0.000 C 
ATOM      6  OG  SER A   1       7.279   0.032  -0.578  0.00  0.00    +0.000 OA
ATOM      7  N   LEU A   2       3.785  -0.960  -0.698  0.00  0.00    +0.000 N 
ATOM      8  CA  LEU A   2       2.849  -0.862   0.426  0.00  0.00    +0.000 C 
ATOM      9  C   LEU A   2       1.553  -1.541   0.068  0.00  0.00    +0.000 C 
ATOM     10  O   LEU A   2       1.043  -1.352  -1.071  0.00  0.00    +0.000 OA
ATOM     11  CB  LEU A   2       2.587   0.616   0.777  0.00  0.00    +0.000 C 
ATOM     12  CG  LEU A   2       3.863   1.408   1.150  0.00  0.00    +0.000 C 
ATOM     13  CD1 LEU A   2       4.511   0.886   2.441  0.00  0.00    +0.000 C 
ATOM     14  CD2 LEU A   2       3.525   2.897   1.301  0.00  0.00    +0.000 C 
ATOM     15  N   ALA A   3       0.878  -2.359   1.036  0.00  0.00    +0.000 N 
ATOM     16  CA  ALA A   3      -0.460  -2.906   0.803  0.00  0.00    +0.000 C 
ATOM     17  C   ALA A   3      -1.494  -1.932   1.299  0.00  0.00    +0.000 C 
ATOM     18  O   ALA A   3      -1.587  -1.699   2.536  0.00  0.00    +0.000 OA
ATOM     19  CB  ALA A   3      -0.605  -4.260   1.503  0.00  0.00    +0.000 C 
ATOM     20  N   HIS A   4      -2.343  -1.242   0.369  0.00  0.00    +0.000 N 
ATOM     21  CA  HIS A   4      -3.318  -0.232   0.804  0.00  0.00    +0.000 C 
ATOM     22  C   HIS A   4      -4.421  -0.054  -0.213  0.00  0.00    +0.000 C 
ATOM     23  O   HIS A   4      -4.167  -0.138  -1.446  0.00  0.00    +0.000 OA
ATOM     24  CB  HIS A   4      -2.622   1.109   1.104  0.00  0.00    +0.000 C 
ATOM     25  CG  HIS A   4      -1.887   1.655  -0.084  0.00  0.00    +0.000 C 
ATOM     26  ND1 HIS A   4      -0.648   1.267  -0.445  0.00  0.00    +0.000 NA
ATOM     27  CD2 HIS A   4      -2.380   2.559  -0.999  0.00  0.00    +0.000 C 
ATOM     28  CE1 HIS A   4      -0.408   1.962  -1.578  0.00  0.00    +0.000 C 
ATOM     29  NE2 HIS A   4      -1.439   2.750  -1.936  0.00  0.00    +0.000 N 
ATOM     30  N   SER A   5      -5.746   0.288   0.223  0.00  0.00    +0.000 N 
ATOM     31  CA  SER A   5      -6.825   0.581  -0.726  0.00  0.00    +0.000 C 
ATOM     32  C   SER A   5      -6.579   1.899  -1.406  0.00  0.00    +0.000 C 
ATOM     33  O   SER A   5      -6.224   2.906  -0.736  0.00  0.00    +0.000 OA
ATOM     34  CB  SER A   5      -8.191   0.580  -0.025  0.00  0.00    +0.000 C 
ATOM     35  OG  SER A   5      -8.241   1.570   0.967  0.00  0.00    +0.000 OA
ATOM     36  OXT SER A   5      -6.773   2.015  -2.779  0.00  0.00    +0.000 OA
ATOM     37  H1  UNL     1       6.074  -1.946  -3.790  0.00  0.00    +0.000 HD
ATOM     38  H2  UNL     1       4.951  -2.899  -3.002  0.00  0.00    +0.000 HD
ATOM     39  H6  UNL     1       8.110  -0.510  -0.551  0.00  0.00    +0.000 HD
ATOM     40  H7  UNL     1       3.567  -0.433  -1.574  0.00  0.00    +0.000 HD
ATOM     41  H18 UNL     1       1.285  -2.432   1.996  0.00  0.00    +0.000 HD
ATOM     42  H23 UNL     1      -2.195  -1.413  -0.651  0.00  0.00    +0.000 HD
ATOM     43  H29 UNL     1      -1.498   3.372  -2.771  0.00  0.00    +0.000 HD
ATOM     44  H30 UNL     1      -5.932   0.344   1.251  0.00  0.00    +0.000 HD
ATOM     45  H34 UNL     1      -9.145   1.507   1.373  0.00  0.00    +0.000 HD
ATOM     46  H35 UNL     1      -6.620   2.897  -3.253  0.00  0.00    +0.000 HD
TER 
