REMARK  Name = .\slahs_conformers\SLAHS_03.pdb
REMARK                            x       y       z     vdW  Elec       q    Type
REMARK                         _______ _______ _______ _____ _____    ______ ____
ATOM      1  N   SER A   1      -1.601  -3.655   1.001  0.00  0.00    +0.000 NA
ATOM      2  CA  SER A   1      -2.066  -2.269   1.085  0.00  0.00    +0.000 C 
ATOM      3  C   SER A   1      -1.798  -1.547  -0.210  0.00  0.00    +0.000 C 
ATOM      4  O   SER A   1      -0.725  -1.763  -0.837  0.00  0.00    +0.000 OA
ATOM      5  CB  SER A   1      -1.381  -1.544   2.251  0.00  0.00    +0.000 C 
ATOM      6  OG  SER A   1       0.013  -1.603   2.115  0.00  0.00    +0.000 OA
ATOM      7  N   LEU A   2      -2.737  -0.579  -0.699  0.00  0.00    +0.000 N 
ATOM      8  CA  LEU A   2      -2.506   0.176  -1.935  0.00  0.00    +0.000 C 
ATOM      9  C   LEU A   2      -1.513   1.273  -1.664  0.00  0.00    +0.000 C 
ATOM     10  O   LEU A   2      -0.551   1.446  -2.461  0.00  0.00    +0.000 OA
ATOM     11  CB  LEU A   2      -3.823   0.782  -2.480  0.00  0.00    +0.000 C 
ATOM     12  CG  LEU A   2      -4.776  -0.215  -3.189  0.00  0.00    +0.000 C 
ATOM     13  CD1 LEU A   2      -4.175  -0.789  -4.481  0.00  0.00    +0.000 C 
ATOM     14  CD2 LEU A   2      -5.268  -1.339  -2.270  0.00  0.00    +0.000 C 
ATOM     15  N   ALA A   3      -1.663   2.127  -0.520  0.00  0.00    +0.000 N 
ATOM     16  CA  ALA A   3      -0.556   2.947  -0.023  0.00  0.00    +0.000 C 
ATOM     17  C   ALA A   3       0.474   2.052   0.614  0.00  0.00    +0.000 C 
ATOM     18  O   ALA A   3       0.245   1.541   1.744  0.00  0.00    +0.000 OA
ATOM     19  CB  ALA A   3      -1.065   3.995   0.972  0.00  0.00    +0.000 C 
ATOM     20  N   HIS A   4       1.670   1.711  -0.101  0.00  0.00    +0.000 N 
ATOM     21  CA  HIS A   4       2.531   0.600   0.321  0.00  0.00    +0.000 C 
ATOM     22  C   HIS A   4       3.314   0.995   1.543  0.00  0.00    +0.000 C 
ATOM     23  O   HIS A   4       3.889   2.117   1.581  0.00  0.00    +0.000 OA
ATOM     24  CB  HIS A   4       3.493   0.185  -0.805  0.00  0.00    +0.000 C 
ATOM     25  CG  HIS A   4       2.743  -0.374  -1.978  0.00  0.00    +0.000 C 
ATOM     26  ND1 HIS A   4       2.216  -1.614  -2.012  0.00  0.00    +0.000 NA
ATOM     27  CD2 HIS A   4       2.420   0.305  -3.132  0.00  0.00    +0.000 C 
ATOM     28  CE1 HIS A   4       1.586  -1.665  -3.205  0.00  0.00    +0.000 C 
ATOM     29  NE2 HIS A   4       1.692  -0.518  -3.902  0.00  0.00    +0.000 N 
ATOM     30  N   SER A   5       3.435   0.084   2.645  0.00  0.00    +0.000 N 
ATOM     31  CA  SER A   5       4.165   0.432   3.867  0.00  0.00    +0.000 C 
ATOM     32  C   SER A   5       5.643   0.374   3.609  0.00  0.00    +0.000 C 
ATOM     33  O   SER A   5       6.392   1.301   4.018  0.00  0.00    +0.000 OA
ATOM     34  CB  SER A   5       3.797  -0.523   5.009  0.00  0.00    +0.000 C 
ATOM     35  OG  SER A   5       2.426  -0.426   5.283  0.00  0.00    +0.000 OA
ATOM     36  OXT SER A   5       6.191  -0.720   2.945  0.00  0.00    +0.000 OA
ATOM     37  H1  UNL     1      -1.864  -4.145   1.887  0.00  0.00    +0.000 HD
ATOM     38  H2  UNL     1      -2.135  -4.134   0.239  0.00  0.00    +0.000 HD
ATOM     39  H6  UNL     1       0.386  -1.126   2.901  0.00  0.00    +0.000 HD
ATOM     40  H7  UNL     1      -3.562  -0.345  -0.102  0.00  0.00    +0.000 HD
ATOM     41  H18 UNL     1      -2.541   2.059   0.043  0.00  0.00    +0.000 HD
ATOM     42  H23 UNL     1       1.892   2.232  -0.979  0.00  0.00    +0.000 HD
ATOM     43  H29 UNL     1       1.284  -0.308  -4.839  0.00  0.00    +0.000 HD
ATOM     44  H30 UNL     1       2.999  -0.863   2.560  0.00  0.00    +0.000 HD
ATOM     45  H34 UNL     1       2.245  -1.073   6.014  0.00  0.00    +0.000 HD
ATOM     46  H35 UNL     1       7.188  -0.776   2.772  0.00  0.00    +0.000 HD
TER 
