REMARK  Name = .\slahs_conformers\SLAHS_11.pdb
REMARK                            x       y       z     vdW  Elec       q    Type
REMARK                         _______ _______ _______ _____ _____    ______ ____
ATOM      1  N   SER A   1      -7.310   1.892   1.952  0.00  0.00    +0.000 NA
ATOM      2  CA  SER A   1      -6.142   2.088   1.089  0.00  0.00    +0.000 C 
ATOM      3  C   SER A   1      -5.107   1.015   1.322  0.00  0.00    +0.000 C 
ATOM      4  O   SER A   1      -4.768   0.717   2.501  0.00  0.00    +0.000 OA
ATOM      5  CB  SER A   1      -5.528   3.476   1.320  0.00  0.00    +0.000 C 
ATOM      6  OG  SER A   1      -6.445   4.481   0.981  0.00  0.00    +0.000 OA
ATOM      7  N   LEU A   2      -4.471   0.374   0.207  0.00  0.00    +0.000 N 
ATOM      8  CA  LEU A   2      -3.400  -0.613   0.380  0.00  0.00    +0.000 C 
ATOM      9  C   LEU A   2      -2.082   0.093   0.554  0.00  0.00    +0.000 C 
ATOM     10  O   LEU A   2      -1.834   1.132  -0.117  0.00  0.00    +0.000 OA
ATOM     11  CB  LEU A   2      -3.323  -1.562  -0.834  0.00  0.00    +0.000 C 
ATOM     12  CG  LEU A   2      -4.628  -2.353  -1.095  0.00  0.00    +0.000 C 
ATOM     13  CD1 LEU A   2      -4.938  -3.344   0.037  0.00  0.00    +0.000 C 
ATOM     14  CD2 LEU A   2      -4.524  -3.104  -2.429  0.00  0.00    +0.000 C 
ATOM     15  N   ALA A   3      -1.087  -0.450   1.435  0.00  0.00    +0.000 N 
ATOM     16  CA  ALA A   3       0.239   0.159   1.576  0.00  0.00    +0.000 C 
ATOM     17  C   ALA A   3       1.055  -0.075   0.334  0.00  0.00    +0.000 C 
ATOM     18  O   ALA A   3       1.002  -1.193  -0.248  0.00  0.00    +0.000 OA
ATOM     19  CB  ALA A   3       0.971  -0.420   2.789  0.00  0.00    +0.000 C 
ATOM     20  N   HIS A   4       1.935   0.950  -0.151  0.00  0.00    +0.000 N 
ATOM     21  CA  HIS A   4       2.856   0.720  -1.269  0.00  0.00    +0.000 C 
ATOM     22  C   HIS A   4       3.920  -0.263  -0.853  0.00  0.00    +0.000 C 
ATOM     23  O   HIS A   4       4.157  -1.264  -1.583  0.00  0.00    +0.000 OA
ATOM     24  CB  HIS A   4       3.484   2.049  -1.727  0.00  0.00    +0.000 C 
ATOM     25  CG  HIS A   4       4.341   1.866  -2.944  0.00  0.00    +0.000 C 
ATOM     26  ND1 HIS A   4       3.860   1.805  -4.202  0.00  0.00    +0.000 NA
ATOM     27  CD2 HIS A   4       5.702   1.655  -2.951  0.00  0.00    +0.000 C 
ATOM     28  CE1 HIS A   4       4.956   1.572  -4.955  0.00  0.00    +0.000 C 
ATOM     29  NE2 HIS A   4       6.083   1.476  -4.224  0.00  0.00    +0.000 N 
ATOM     30  N   SER A   5       4.669  -0.055   0.354  0.00  0.00    +0.000 N 
ATOM     31  CA  SER A   5       5.672  -1.016   0.822  0.00  0.00    +0.000 C 
ATOM     32  C   SER A   5       4.991  -2.237   1.370  0.00  0.00    +0.000 C 
ATOM     33  O   SER A   5       4.057  -2.122   2.209  0.00  0.00    +0.000 OA
ATOM     34  CB  SER A   5       6.569  -0.387   1.894  0.00  0.00    +0.000 C 
ATOM     35  OG  SER A   5       7.252   0.711   1.355  0.00  0.00    +0.000 OA
ATOM     36  OXT SER A   5       5.410  -3.501   0.969  0.00  0.00    +0.000 OA
ATOM     37  H1  UNL     1      -7.016   1.915   2.956  0.00  0.00    +0.000 HD
ATOM     38  H2  UNL     1      -7.713   0.945   1.762  0.00  0.00    +0.000 HD
ATOM     39  H6  UNL     1      -7.042   4.601   1.765  0.00  0.00    +0.000 HD
ATOM     40  H7  UNL     1      -4.690   0.716  -0.757  0.00  0.00    +0.000 HD
ATOM     41  H18 UNL     1      -1.315  -1.319   1.970  0.00  0.00    +0.000 HD
ATOM     42  H23 UNL     1       1.943   1.873   0.341  0.00  0.00    +0.000 HD
ATOM     43  H29 UNL     1       7.049   1.290  -4.573  0.00  0.00    +0.000 HD
ATOM     44  H30 UNL     1       4.463   0.794   0.929  0.00  0.00    +0.000 HD
ATOM     45  H34 UNL     1       7.806   1.079   2.091  0.00  0.00    +0.000 HD
ATOM     46  H35 UNL     1       4.967  -4.336   1.334  0.00  0.00    +0.000 HD
TER 
