REMARK  Name = .\slahs_conformers\SLAHS_12.pdb
REMARK                            x       y       z     vdW  Elec       q    Type
REMARK                         _______ _______ _______ _____ _____    ______ ____
ATOM      1  N   SER A   1       1.730   2.193  -1.641  0.00  0.00    +0.000 NA
ATOM      2  CA  SER A   1       2.230   1.436  -0.489  0.00  0.00    +0.000 C 
ATOM      3  C   SER A   1       2.068  -0.045  -0.720  0.00  0.00    +0.000 C 
ATOM      4  O   SER A   1       1.217  -0.469  -1.549  0.00  0.00    +0.000 OA
ATOM      5  CB  SER A   1       1.520   1.858   0.812  0.00  0.00    +0.000 C 
ATOM      6  OG  SER A   1       1.768   3.209   1.096  0.00  0.00    +0.000 OA
ATOM      7  N   LEU A   2       2.861  -0.974   0.035  0.00  0.00    +0.000 N 
ATOM      8  CA  LEU A   2       2.738  -2.425  -0.137  0.00  0.00    +0.000 C 
ATOM      9  C   LEU A   2       1.438  -2.885   0.465  0.00  0.00    +0.000 C 
ATOM     10  O   LEU A   2       0.658  -3.602  -0.219  0.00  0.00    +0.000 OA
ATOM     11  CB  LEU A   2       3.920  -3.177   0.525  0.00  0.00    +0.000 C 
ATOM     12  CG  LEU A   2       5.251  -3.169  -0.272  0.00  0.00    +0.000 C 
ATOM     13  CD1 LEU A   2       5.151  -3.943  -1.595  0.00  0.00    +0.000 C 
ATOM     14  CD2 LEU A   2       5.807  -1.759  -0.505  0.00  0.00    +0.000 C 
ATOM     15  N   ALA A   3       1.082  -2.507   1.804  0.00  0.00    +0.000 N 
ATOM     16  CA  ALA A   3      -0.309  -2.516   2.257  0.00  0.00    +0.000 C 
ATOM     17  C   ALA A   3      -1.009  -1.303   1.704  0.00  0.00    +0.000 C 
ATOM     18  O   ALA A   3      -0.850  -0.180   2.257  0.00  0.00    +0.000 OA
ATOM     19  CB  ALA A   3      -0.373  -2.552   3.788  0.00  0.00    +0.000 C 
ATOM     20  N   HIS A   4      -1.765  -1.406   0.489  0.00  0.00    +0.000 N 
ATOM     21  CA  HIS A   4      -2.087  -0.227  -0.320  0.00  0.00    +0.000 C 
ATOM     22  C   HIS A   4      -3.138   0.602   0.371  0.00  0.00    +0.000 C 
ATOM     23  O   HIS A   4      -4.195   0.050   0.784  0.00  0.00    +0.000 OA
ATOM     24  CB  HIS A   4      -2.555  -0.645  -1.725  0.00  0.00    +0.000 C 
ATOM     25  CG  HIS A   4      -2.705   0.544  -2.625  0.00  0.00    +0.000 C 
ATOM     26  ND1 HIS A   4      -1.672   1.161  -3.235  0.00  0.00    +0.000 NA
ATOM     27  CD2 HIS A   4      -3.873   1.230  -2.874  0.00  0.00    +0.000 C 
ATOM     28  CE1 HIS A   4      -2.246   2.209  -3.861  0.00  0.00    +0.000 C 
ATOM     29  NE2 HIS A   4      -3.576   2.276  -3.659  0.00  0.00    +0.000 N 
ATOM     30  N   SER A   5      -2.950   2.017   0.525  0.00  0.00    +0.000 N 
ATOM     31  CA  SER A   5      -3.993   2.891   1.064  0.00  0.00    +0.000 C 
ATOM     32  C   SER A   5      -4.901   3.330  -0.048  0.00  0.00    +0.000 C 
ATOM     33  O   SER A   5      -4.451   4.022  -1.002  0.00  0.00    +0.000 OA
ATOM     34  CB  SER A   5      -3.356   4.099   1.770  0.00  0.00    +0.000 C 
ATOM     35  OG  SER A   5      -4.341   4.922   2.335  0.00  0.00    +0.000 OA
ATOM     36  OXT SER A   5      -6.241   2.956  -0.036  0.00  0.00    +0.000 OA
ATOM     37  H1  UNL     1       0.684   2.156  -1.658  0.00  0.00    +0.000 HD
ATOM     38  H2  UNL     1       2.003   3.196  -1.529  0.00  0.00    +0.000 HD
ATOM     39  H6  UNL     1       2.699   3.261   1.437  0.00  0.00    +0.000 HD
ATOM     40  H7  UNL     1       3.500  -0.592   0.770  0.00  0.00    +0.000 HD
ATOM     41  H18 UNL     1       1.793  -2.001   2.380  0.00  0.00    +0.000 HD
ATOM     42  H23 UNL     1      -1.984  -2.359   0.118  0.00  0.00    +0.000 HD
ATOM     43  H29 UNL     1      -4.235   2.998  -4.024  0.00  0.00    +0.000 HD
ATOM     44  H30 UNL     1      -2.101   2.455   0.101  0.00  0.00    +0.000 HD
ATOM     45  H34 UNL     1      -4.664   4.458   3.152  0.00  0.00    +0.000 HD
ATOM     46  H35 UNL     1      -6.865   3.234  -0.784  0.00  0.00    +0.000 HD
TER 
