REMARK  Name = .\slahs_conformers\SLAHS_07.pdb
REMARK                            x       y       z     vdW  Elec       q    Type
REMARK                         _______ _______ _______ _____ _____    ______ ____
ATOM      1  N   SER A   1      -6.160  -1.605  -0.320  0.00  0.00    +0.000 NA
ATOM      2  CA  SER A   1      -5.396  -1.710  -1.565  0.00  0.00    +0.000 C 
ATOM      3  C   SER A   1      -4.615  -0.441  -1.813  0.00  0.00    +0.000 C 
ATOM      4  O   SER A   1      -5.192   0.565  -2.311  0.00  0.00    +0.000 OA
ATOM      5  CB  SER A   1      -6.332  -2.032  -2.737  0.00  0.00    +0.000 C 
ATOM      6  OG  SER A   1      -6.956  -3.267  -2.518  0.00  0.00    +0.000 OA
ATOM      7  N   LEU A   2      -3.239  -0.360  -1.414  0.00  0.00    +0.000 N 
ATOM      8  CA  LEU A   2      -2.493   0.906  -1.427  0.00  0.00    +0.000 C 
ATOM      9  C   LEU A   2      -1.005   0.675  -1.568  0.00  0.00    +0.000 C 
ATOM     10  O   LEU A   2      -0.546  -0.500  -1.611  0.00  0.00    +0.000 OA
ATOM     11  CB  LEU A   2      -2.857   1.765  -0.191  0.00  0.00    +0.000 C 
ATOM     12  CG  LEU A   2      -2.740   1.054   1.184  0.00  0.00    +0.000 C 
ATOM     13  CD1 LEU A   2      -3.537   1.831   2.242  0.00  0.00    +0.000 C 
ATOM     14  CD2 LEU A   2      -1.283   0.918   1.643  0.00  0.00    +0.000 C 
ATOM     15  N   ALA A   3      -0.110   1.791  -1.693  0.00  0.00    +0.000 N 
ATOM     16  CA  ALA A   3       1.346   1.626  -1.654  0.00  0.00    +0.000 C 
ATOM     17  C   ALA A   3       1.781   1.316  -0.245  0.00  0.00    +0.000 C 
ATOM     18  O   ALA A   3       1.841   2.241   0.611  0.00  0.00    +0.000 OA
ATOM     19  CB  ALA A   3       2.046   2.882  -2.181  0.00  0.00    +0.000 C 
ATOM     20  N   HIS A   4       2.057  -0.039   0.140  0.00  0.00    +0.000 N 
ATOM     21  CA  HIS A   4       2.400  -0.402   1.519  0.00  0.00    +0.000 C 
ATOM     22  C   HIS A   4       3.813   0.020   1.815  0.00  0.00    +0.000 C 
ATOM     23  O   HIS A   4       4.061   0.653   2.877  0.00  0.00    +0.000 OA
ATOM     24  CB  HIS A   4       2.241  -1.916   1.750  0.00  0.00    +0.000 C 
ATOM     25  CG  HIS A   4       0.806  -2.335   1.634  0.00  0.00    +0.000 C 
ATOM     26  ND1 HIS A   4      -0.100  -2.200   2.623  0.00  0.00    +0.000 NA
ATOM     27  CD2 HIS A   4       0.193  -2.827   0.503  0.00  0.00    +0.000 C 
ATOM     28  CE1 HIS A   4      -1.253  -2.630   2.068  0.00  0.00    +0.000 C 
ATOM     29  NE2 HIS A   4      -1.105  -3.014   0.786  0.00  0.00    +0.000 N 
ATOM     30  N   SER A   5       4.873  -0.302   0.901  0.00  0.00    +0.000 N 
ATOM     31  CA  SER A   5       6.220   0.256   1.049  0.00  0.00    +0.000 C 
ATOM     32  C   SER A   5       6.198   1.722   0.720  0.00  0.00    +0.000 C 
ATOM     33  O   SER A   5       6.806   2.543   1.457  0.00  0.00    +0.000 OA
ATOM     34  CB  SER A   5       7.208  -0.481   0.130  0.00  0.00    +0.000 C 
ATOM     35  OG  SER A   5       8.513   0.000   0.312  0.00  0.00    +0.000 OA
ATOM     36  OXT SER A   5       5.531   2.171  -0.416  0.00  0.00    +0.000 OA
ATOM     37  H1  UNL     1      -5.489  -1.470   0.472  0.00  0.00    +0.000 HD
ATOM     38  H2  UNL     1      -6.770  -0.756  -0.358  0.00  0.00    +0.000 HD
ATOM     39  H6  UNL     1      -7.544  -3.421  -3.303  0.00  0.00    +0.000 HD
ATOM     40  H7  UNL     1      -2.820  -1.192  -0.941  0.00  0.00    +0.000 HD
ATOM     41  H18 UNL     1      -0.516   2.750  -1.793  0.00  0.00    +0.000 HD
ATOM     42  H23 UNL     1       2.037  -0.781  -0.596  0.00  0.00    +0.000 HD
ATOM     43  H29 UNL     1      -1.846  -3.371   0.145  0.00  0.00    +0.000 HD
ATOM     44  H30 UNL     1       4.654  -0.903   0.074  0.00  0.00    +0.000 HD
ATOM     45  H34 UNL     1       8.836  -0.375   1.172  0.00  0.00    +0.000 HD
ATOM     46  H35 UNL     1       5.511   3.155  -0.653  0.00  0.00    +0.000 HD
TER 
