REMARK  Name = .\slahs_conformers\SLAHS_02.pdb
REMARK                            x       y       z     vdW  Elec       q    Type
REMARK                         _______ _______ _______ _____ _____    ______ ____
ATOM      1  N   SER A   1       2.214   2.027   0.250  0.00  0.00    +0.000 NA
ATOM      2  CA  SER A   1       2.773   0.966  -0.589  0.00  0.00    +0.000 C 
ATOM      3  C   SER A   1       2.443  -0.383  -0.003  0.00  0.00    +0.000 C 
ATOM      4  O   SER A   1       2.050  -1.307  -0.766  0.00  0.00    +0.000 OA
ATOM      5  CB  SER A   1       4.294   1.140  -0.707  0.00  0.00    +0.000 C 
ATOM      6  OG  SER A   1       4.832   0.206  -1.605  0.00  0.00    +0.000 OA
ATOM      7  N   LEU A   2       2.608  -0.630   1.402  0.00  0.00    +0.000 N 
ATOM      8  CA  LEU A   2       2.169  -1.884   2.022  0.00  0.00    +0.000 C 
ATOM      9  C   LEU A   2       0.665  -1.941   2.020  0.00  0.00    +0.000 C 
ATOM     10  O   LEU A   2       0.086  -2.981   1.603  0.00  0.00    +0.000 OA
ATOM     11  CB  LEU A   2       2.700  -2.012   3.466  0.00  0.00    +0.000 C 
ATOM     12  CG  LEU A   2       4.245  -2.065   3.562  0.00  0.00    +0.000 C 
ATOM     13  CD1 LEU A   2       4.682  -1.920   5.026  0.00  0.00    +0.000 C 
ATOM     14  CD2 LEU A   2       4.815  -3.367   2.978  0.00  0.00    +0.000 C 
ATOM     15  N   ALA A   3      -0.106  -0.823   2.486  0.00  0.00    +0.000 N 
ATOM     16  CA  ALA A   3      -1.484  -0.594   2.054  0.00  0.00    +0.000 C 
ATOM     17  C   ALA A   3      -1.480   0.353   0.882  0.00  0.00    +0.000 C 
ATOM     18  O   ALA A   3      -1.584   1.596   1.070  0.00  0.00    +0.000 OA
ATOM     19  CB  ALA A   3      -2.317  -0.059   3.222  0.00  0.00    +0.000 C 
ATOM     20  N   HIS A   4      -1.273  -0.158  -0.444  0.00  0.00    +0.000 N 
ATOM     21  CA  HIS A   4      -1.234   0.719  -1.619  0.00  0.00    +0.000 C 
ATOM     22  C   HIS A   4      -2.602   1.302  -1.860  0.00  0.00    +0.000 C 
ATOM     23  O   HIS A   4      -2.724   2.546  -2.026  0.00  0.00    +0.000 OA
ATOM     24  CB  HIS A   4      -0.743  -0.057  -2.854  0.00  0.00    +0.000 C 
ATOM     25  CG  HIS A   4      -0.516   0.855  -4.021  0.00  0.00    +0.000 C 
ATOM     26  ND1 HIS A   4       0.601   1.590  -4.196  0.00  0.00    +0.000 NA
ATOM     27  CD2 HIS A   4      -1.424   1.137  -5.017  0.00  0.00    +0.000 C 
ATOM     28  CE1 HIS A   4       0.349   2.298  -5.318  0.00  0.00    +0.000 C 
ATOM     29  NE2 HIS A   4      -0.869   2.043  -5.835  0.00  0.00    +0.000 N 
ATOM     30  N   SER A   5      -3.757   0.450  -1.908  0.00  0.00    +0.000 N 
ATOM     31  CA  SER A   5      -5.117   0.990  -1.975  0.00  0.00    +0.000 C 
ATOM     32  C   SER A   5      -5.481   1.606  -0.654  0.00  0.00    +0.000 C 
ATOM     33  O   SER A   5      -6.058   2.725  -0.617  0.00  0.00    +0.000 OA
ATOM     34  CB  SER A   5      -6.115  -0.120  -2.339  0.00  0.00    +0.000 C 
ATOM     35  OG  SER A   5      -7.412   0.398  -2.473  0.00  0.00    +0.000 OA
ATOM     36  OXT SER A   5      -5.205   0.927   0.530  0.00  0.00    +0.000 OA
ATOM     37  H1  UNL     1       1.181   1.882   0.326  0.00  0.00    +0.000 HD
ATOM     38  H2  UNL     1       2.342   2.940  -0.245  0.00  0.00    +0.000 HD
ATOM     39  H6  UNL     1       5.014  -0.621  -1.086  0.00  0.00    +0.000 HD
ATOM     40  H7  UNL     1       2.976   0.142   2.003  0.00  0.00    +0.000 HD
ATOM     41  H18 UNL     1       0.398  -0.033   2.949  0.00  0.00    +0.000 HD
ATOM     42  H23 UNL     1      -1.139  -1.188  -0.564  0.00  0.00    +0.000 HD
ATOM     43  H29 UNL     1      -1.295   2.470  -6.687  0.00  0.00    +0.000 HD
ATOM     44  H30 UNL     1      -3.617  -0.583  -1.831  0.00  0.00    +0.000 HD
ATOM     45  H34 UNL     1      -7.437   0.880  -3.341  0.00  0.00    +0.000 HD
ATOM     46  H35 UNL     1      -5.449   1.328   1.428  0.00  0.00    +0.000 HD
TER 
