REMARK  Name = .\slahs_conformers\SLAHS_08.pdb
REMARK                            x       y       z     vdW  Elec       q    Type
REMARK                         _______ _______ _______ _____ _____    ______ ____
ATOM      1  N   SER A   1      -7.560   0.643   1.386  0.00  0.00    +0.000 NA
ATOM      2  CA  SER A   1      -6.390   1.030   0.594  0.00  0.00    +0.000 C 
ATOM      3  C   SER A   1      -5.257   0.068   0.841  0.00  0.00    +0.000 C 
ATOM      4  O   SER A   1      -4.997  -0.304   2.019  0.00  0.00    +0.000 OA
ATOM      5  CB  SER A   1      -5.955   2.469   0.915  0.00  0.00    +0.000 C 
ATOM      6  OG  SER A   1      -4.908   2.854   0.066  0.00  0.00    +0.000 OA
ATOM      7  N   LEU A   2      -4.439  -0.376  -0.252  0.00  0.00    +0.000 N 
ATOM      8  CA  LEU A   2      -3.250  -1.209  -0.048  0.00  0.00    +0.000 C 
ATOM      9  C   LEU A   2      -2.081  -0.340   0.335  0.00  0.00    +0.000 C 
ATOM     10  O   LEU A   2      -1.934   0.788  -0.211  0.00  0.00    +0.000 OA
ATOM     11  CB  LEU A   2      -2.907  -2.004  -1.324  0.00  0.00    +0.000 C 
ATOM     12  CG  LEU A   2      -4.039  -2.949  -1.796  0.00  0.00    +0.000 C 
ATOM     13  CD1 LEU A   2      -4.290  -4.092  -0.799  0.00  0.00    +0.000 C 
ATOM     14  CD2 LEU A   2      -3.693  -3.529  -3.174  0.00  0.00    +0.000 C 
ATOM     15  N   ALA A   3      -1.105  -0.821   1.271  0.00  0.00    +0.000 N 
ATOM     16  CA  ALA A   3       0.088  -0.041   1.616  0.00  0.00    +0.000 C 
ATOM     17  C   ALA A   3       1.046  -0.016   0.455  0.00  0.00    +0.000 C 
ATOM     18  O   ALA A   3       1.257  -1.071  -0.204  0.00  0.00    +0.000 OA
ATOM     19  CB  ALA A   3       0.781  -0.632   2.845  0.00  0.00    +0.000 C 
ATOM     20  N   HIS A   4       1.756   1.189   0.134  0.00  0.00    +0.000 N 
ATOM     21  CA  HIS A   4       2.788   1.231  -0.906  0.00  0.00    +0.000 C 
ATOM     22  C   HIS A   4       3.982   0.422  -0.467  0.00  0.00    +0.000 C 
ATOM     23  O   HIS A   4       4.484  -0.419  -1.261  0.00  0.00    +0.000 OA
ATOM     24  CB  HIS A   4       3.192   2.688  -1.200  0.00  0.00    +0.000 C 
ATOM     25  CG  HIS A   4       4.150   2.775  -2.351  0.00  0.00    +0.000 C 
ATOM     26  ND1 HIS A   4       3.777   2.745  -3.646  0.00  0.00    +0.000 NA
ATOM     27  CD2 HIS A   4       5.523   2.813  -2.259  0.00  0.00    +0.000 C 
ATOM     28  CE1 HIS A   4       4.946   2.783  -4.320  0.00  0.00    +0.000 C 
ATOM     29  NE2 HIS A   4       6.018   2.824  -3.506  0.00  0.00    +0.000 N 
ATOM     30  N   SER A   5       4.555   0.620   0.834  0.00  0.00    +0.000 N 
ATOM     31  CA  SER A   5       5.674  -0.193   1.323  0.00  0.00    +0.000 C 
ATOM     32  C   SER A   5       5.224  -1.608   1.559  0.00  0.00    +0.000 C 
ATOM     33  O   SER A   5       5.994  -2.567   1.284  0.00  0.00    +0.000 OA
ATOM     34  CB  SER A   5       6.263   0.403   2.609  0.00  0.00    +0.000 C 
ATOM     35  OG  SER A   5       5.301   0.426   3.629  0.00  0.00    +0.000 OA
ATOM     36  OXT SER A   5       3.974  -1.860   2.117  0.00  0.00    +0.000 OA
ATOM     37  H1  UNL     1      -8.370   1.238   1.097  0.00  0.00    +0.000 HD
ATOM     38  H2  UNL     1      -7.379   0.840   2.399  0.00  0.00    +0.000 HD
ATOM     39  H6  UNL     1      -4.665   3.779   0.331  0.00  0.00    +0.000 HD
ATOM     40  H7  UNL     1      -4.620   0.021  -1.202  0.00  0.00    +0.000 HD
ATOM     41  H18 UNL     1      -1.245  -1.764   1.699  0.00  0.00    +0.000 HD
ATOM     42  H23 UNL     1       1.549   2.052   0.689  0.00  0.00    +0.000 HD
ATOM     43  H29 UNL     1       7.023   2.848  -3.786  0.00  0.00    +0.000 HD
ATOM     44  H30 UNL     1       4.153   1.367   1.445  0.00  0.00    +0.000 HD
ATOM     45  H34 UNL     1       5.748   0.825   4.420  0.00  0.00    +0.000 HD
ATOM     46  H35 UNL     1       3.664  -2.808   2.290  0.00  0.00    +0.000 HD
TER 
