REMARK  Name = .\slahs_conformers\SLAHS_10.pdb
REMARK                            x       y       z     vdW  Elec       q    Type
REMARK                         _______ _______ _______ _____ _____    ______ ____
ATOM      1  N   SER A   1       5.520  -2.708   1.211  0.00  0.00    +0.000 NA
ATOM      2  CA  SER A   1       6.184  -1.467   1.608  0.00  0.00    +0.000 C 
ATOM      3  C   SER A   1       5.197  -0.328   1.589  0.00  0.00    +0.000 C 
ATOM      4  O   SER A   1       5.142   0.457   2.574  0.00  0.00    +0.000 OA
ATOM      5  CB  SER A   1       7.361  -1.172   0.663  0.00  0.00    +0.000 C 
ATOM      6  OG  SER A   1       8.020   0.007   1.039  0.00  0.00    +0.000 OA
ATOM      7  N   LEU A   2       4.347  -0.121   0.450  0.00  0.00    +0.000 N 
ATOM      8  CA  LEU A   2       3.373   0.978   0.389  0.00  0.00    +0.000 C 
ATOM      9  C   LEU A   2       2.313   0.839   1.455  0.00  0.00    +0.000 C 
ATOM     10  O   LEU A   2       2.043  -0.298   1.932  0.00  0.00    +0.000 OA
ATOM     11  CB  LEU A   2       2.751   1.118  -1.025  0.00  0.00    +0.000 C 
ATOM     12  CG  LEU A   2       1.589   0.146  -1.370  0.00  0.00    +0.000 C 
ATOM     13  CD1 LEU A   2       0.949   0.551  -2.704  0.00  0.00    +0.000 C 
ATOM     14  CD2 LEU A   2       2.037  -1.320  -1.434  0.00  0.00    +0.000 C 
ATOM     15  N   ALA A   3       1.565   1.991   1.871  0.00  0.00    +0.000 N 
ATOM     16  CA  ALA A   3       0.289   1.869   2.578  0.00  0.00    +0.000 C 
ATOM     17  C   ALA A   3      -0.794   1.532   1.587  0.00  0.00    +0.000 C 
ATOM     18  O   ALA A   3      -1.285   2.439   0.860  0.00  0.00    +0.000 OA
ATOM     19  CB  ALA A   3      -0.028   3.162   3.335  0.00  0.00    +0.000 C 
ATOM     20  N   HIS A   4      -1.194   0.167   1.402  0.00  0.00    +0.000 N 
ATOM     21  CA  HIS A   4      -2.041  -0.247   0.279  0.00  0.00    +0.000 C 
ATOM     22  C   HIS A   4      -3.475   0.112   0.565  0.00  0.00    +0.000 C 
ATOM     23  O   HIS A   4      -3.983  -0.192   1.679  0.00  0.00    +0.000 OA
ATOM     24  CB  HIS A   4      -1.893  -1.758   0.030  0.00  0.00    +0.000 C 
ATOM     25  CG  HIS A   4      -2.584  -2.176  -1.233  0.00  0.00    +0.000 C 
ATOM     26  ND1 HIS A   4      -2.060  -2.020  -2.465  0.00  0.00    +0.000 NA
ATOM     27  CD2 HIS A   4      -3.858  -2.690  -1.327  0.00  0.00    +0.000 C 
ATOM     28  CE1 HIS A   4      -3.034  -2.462  -3.289  0.00  0.00    +0.000 C 
ATOM     29  NE2 HIS A   4      -4.132  -2.872  -2.627  0.00  0.00    +0.000 N 
ATOM     30  N   SER A   5      -4.268   0.762  -0.440  0.00  0.00    +0.000 N 
ATOM     31  CA  SER A   5      -5.692   1.046  -0.249  0.00  0.00    +0.000 C 
ATOM     32  C   SER A   5      -6.500  -0.147  -0.667  0.00  0.00    +0.000 C 
ATOM     33  O   SER A   5      -7.236  -0.736   0.170  0.00  0.00    +0.000 OA
ATOM     34  CB  SER A   5      -6.105   2.282  -1.063  0.00  0.00    +0.000 C 
ATOM     35  OG  SER A   5      -5.363   3.403  -0.664  0.00  0.00    +0.000 OA
ATOM     36  OXT SER A   5      -6.430  -0.613  -1.977  0.00  0.00    +0.000 OA
ATOM     37  H1  UNL     1       4.749  -2.902   1.892  0.00  0.00    +0.000 HD
ATOM     38  H2  UNL     1       6.201  -3.495   1.315  0.00  0.00    +0.000 HD
ATOM     39  H6  UNL     1       8.549  -0.209   1.851  0.00  0.00    +0.000 HD
ATOM     40  H7  UNL     1       4.512  -0.713  -0.394  0.00  0.00    +0.000 HD
ATOM     41  H18 UNL     1       1.836   2.922   1.479  0.00  0.00    +0.000 HD
ATOM     42  H23 UNL     1      -0.817  -0.558   2.054  0.00  0.00    +0.000 HD
ATOM     43  H29 UNL     1      -5.016  -3.244  -3.040  0.00  0.00    +0.000 HD
ATOM     44  H30 UNL     1      -3.848   0.913  -1.385  0.00  0.00    +0.000 HD
ATOM     45  H34 UNL     1      -5.737   3.696   0.207  0.00  0.00    +0.000 HD
ATOM     46  H35 UNL     1      -6.965  -1.421  -2.270  0.00  0.00    +0.000 HD
TER 
