REMARK  Name = .\slahs_conformers\SLAHS_04.pdb
REMARK                            x       y       z     vdW  Elec       q    Type
REMARK                         _______ _______ _______ _____ _____    ______ ____
ATOM      1  N   SER A   1       0.477   2.448  -0.891  0.00  0.00    +0.000 NA
ATOM      2  CA  SER A   1       0.674   1.741  -2.158  0.00  0.00    +0.000 C 
ATOM      3  C   SER A   1       0.886   0.263  -1.926  0.00  0.00    +0.000 C 
ATOM      4  O   SER A   1      -0.002  -0.548  -2.302  0.00  0.00    +0.000 OA
ATOM      5  CB  SER A   1       1.838   2.368  -2.937  0.00  0.00    +0.000 C 
ATOM      6  OG  SER A   1       1.995   1.720  -4.170  0.00  0.00    +0.000 OA
ATOM      7  N   LEU A   2       2.072  -0.221  -1.276  0.00  0.00    +0.000 N 
ATOM      8  CA  LEU A   2       2.270  -1.642  -0.972  0.00  0.00    +0.000 C 
ATOM      9  C   LEU A   2       1.598  -1.968   0.334  0.00  0.00    +0.000 C 
ATOM     10  O   LEU A   2       0.803  -2.945   0.393  0.00  0.00    +0.000 OA
ATOM     11  CB  LEU A   2       3.772  -1.991  -0.906  0.00  0.00    +0.000 C 
ATOM     12  CG  LEU A   2       4.546  -1.670  -2.208  0.00  0.00    +0.000 C 
ATOM     13  CD1 LEU A   2       4.068  -2.527  -3.391  0.00  0.00    +0.000 C 
ATOM     14  CD2 LEU A   2       6.049  -1.882  -1.987  0.00  0.00    +0.000 C 
ATOM     15  N   ALA A   3       1.845  -1.169   1.501  0.00  0.00    +0.000 N 
ATOM     16  CA  ALA A   3       0.897  -1.130   2.615  0.00  0.00    +0.000 C 
ATOM     17  C   ALA A   3      -0.291  -0.297   2.216  0.00  0.00    +0.000 C 
ATOM     18  O   ALA A   3      -0.168   0.954   2.107  0.00  0.00    +0.000 OA
ATOM     19  CB  ALA A   3       1.567  -0.566   3.871  0.00  0.00    +0.000 C 
ATOM     20  N   HIS A   4      -1.531  -0.931   1.873  0.00  0.00    +0.000 N 
ATOM     21  CA  HIS A   4      -2.587  -0.219   1.145  0.00  0.00    +0.000 C 
ATOM     22  C   HIS A   4      -3.241   0.786   2.053  0.00  0.00    +0.000 C 
ATOM     23  O   HIS A   4      -3.740   0.406   3.148  0.00  0.00    +0.000 OA
ATOM     24  CB  HIS A   4      -3.641  -1.198   0.596  0.00  0.00    +0.000 C 
ATOM     25  CG  HIS A   4      -3.052  -2.094  -0.452  0.00  0.00    +0.000 C 
ATOM     26  ND1 HIS A   4      -2.509  -3.301  -0.197  0.00  0.00    +0.000 NA
ATOM     27  CD2 HIS A   4      -2.901  -1.784  -1.785  0.00  0.00    +0.000 C 
ATOM     28  CE1 HIS A   4      -2.048  -3.709  -1.398  0.00  0.00    +0.000 C 
ATOM     29  NE2 HIS A   4      -2.271  -2.810  -2.376  0.00  0.00    +0.000 N 
ATOM     30  N   SER A   5      -3.296   2.170   1.676  0.00  0.00    +0.000 N 
ATOM     31  CA  SER A   5      -3.892   3.191   2.542  0.00  0.00    +0.000 C 
ATOM     32  C   SER A   5      -5.386   3.163   2.404  0.00  0.00    +0.000 C 
ATOM     33  O   SER A   5      -5.921   3.194   1.262  0.00  0.00    +0.000 OA
ATOM     34  CB  SER A   5      -3.353   4.586   2.190  0.00  0.00    +0.000 C 
ATOM     35  OG  SER A   5      -1.976   4.659   2.448  0.00  0.00    +0.000 OA
ATOM     36  OXT SER A   5      -6.185   3.126   3.542  0.00  0.00    +0.000 OA
ATOM     37  H1  UNL     1      -0.380   2.067  -0.427  0.00  0.00    +0.000 HD
ATOM     38  H2  UNL     1       1.285   2.265  -0.253  0.00  0.00    +0.000 HD
ATOM     39  H6  UNL     1       2.765   2.159  -4.616  0.00  0.00    +0.000 HD
ATOM     40  H7  UNL     1       2.754   0.470  -0.890  0.00  0.00    +0.000 HD
ATOM     41  H18 UNL     1       2.595  -0.442   1.457  0.00  0.00    +0.000 HD
ATOM     42  H23 UNL     1      -1.646  -1.947   2.088  0.00  0.00    +0.000 HD
ATOM     43  H29 UNL     1      -1.998  -2.890  -3.381  0.00  0.00    +0.000 HD
ATOM     44  H30 UNL     1      -2.950   2.444   0.728  0.00  0.00    +0.000 HD
ATOM     45  H34 UNL     1      -1.514   4.277   1.657  0.00  0.00    +0.000 HD
ATOM     46  H35 UNL     1      -7.195   3.114   3.468  0.00  0.00    +0.000 HD
TER 
