REMARK  Name = .\slahs_conformers\SLAHS_05.pdb
REMARK                            x       y       z     vdW  Elec       q    Type
REMARK                         _______ _______ _______ _____ _____    ______ ____
ATOM      1  N   SER A   1      -6.981   0.473  -0.777  0.00  0.00    +0.000 NA
ATOM      2  CA  SER A   1      -5.613   0.093  -1.143  0.00  0.00    +0.000 C 
ATOM      3  C   SER A   1      -4.684   0.235   0.035  0.00  0.00    +0.000 C 
ATOM      4  O   SER A   1      -4.924   1.092   0.930  0.00  0.00    +0.000 OA
ATOM      5  CB  SER A   1      -5.101   0.903  -2.349  0.00  0.00    +0.000 C 
ATOM      6  OG  SER A   1      -5.053   2.276  -2.061  0.00  0.00    +0.000 OA
ATOM      7  N   LEU A   2      -3.491  -0.558   0.099  0.00  0.00    +0.000 N 
ATOM      8  CA  LEU A   2      -2.460  -0.337   1.119  0.00  0.00    +0.000 C 
ATOM      9  C   LEU A   2      -1.582   0.821   0.725  0.00  0.00    +0.000 C 
ATOM     10  O   LEU A   2      -1.508   1.175  -0.484  0.00  0.00    +0.000 OA
ATOM     11  CB  LEU A   2      -1.584  -1.595   1.299  0.00  0.00    +0.000 C 
ATOM     12  CG  LEU A   2      -2.376  -2.872   1.667  0.00  0.00    +0.000 C 
ATOM     13  CD1 LEU A   2      -3.027  -2.764   3.054  0.00  0.00    +0.000 C 
ATOM     14  CD2 LEU A   2      -1.446  -4.092   1.620  0.00  0.00    +0.000 C 
ATOM     15  N   ALA A   3      -0.763   1.462   1.713  0.00  0.00    +0.000 N 
ATOM     16  CA  ALA A   3       0.485   2.132   1.345  0.00  0.00    +0.000 C 
ATOM     17  C   ALA A   3       1.527   1.090   1.032  0.00  0.00    +0.000 C 
ATOM     18  O   ALA A   3       2.143   0.514   1.971  0.00  0.00    +0.000 OA
ATOM     19  CB  ALA A   3       0.945   3.065   2.470  0.00  0.00    +0.000 C 
ATOM     20  N   HIS A   4       1.742   0.682  -0.326  0.00  0.00    +0.000 N 
ATOM     21  CA  HIS A   4       2.591  -0.464  -0.669  0.00  0.00    +0.000 C 
ATOM     22  C   HIS A   4       4.037  -0.101  -0.472  0.00  0.00    +0.000 C 
ATOM     23  O   HIS A   4       4.792  -0.889   0.161  0.00  0.00    +0.000 OA
ATOM     24  CB  HIS A   4       2.355  -0.916  -2.121  0.00  0.00    +0.000 C 
ATOM     25  CG  HIS A   4       0.951  -1.405  -2.318  0.00  0.00    +0.000 C 
ATOM     26  ND1 HIS A   4      -0.050  -0.649  -2.813  0.00  0.00    +0.000 NA
ATOM     27  CD2 HIS A   4       0.470  -2.648  -1.970  0.00  0.00    +0.000 C 
ATOM     28  CE1 HIS A   4      -1.125  -1.464  -2.766  0.00  0.00    +0.000 C 
ATOM     29  NE2 HIS A   4      -0.839  -2.678  -2.260  0.00  0.00    +0.000 N 
ATOM     30  N   SER A   5       4.559   1.124  -1.008  0.00  0.00    +0.000 N 
ATOM     31  CA  SER A   5       5.912   1.594  -0.698  0.00  0.00    +0.000 C 
ATOM     32  C   SER A   5       5.978   2.050   0.732  0.00  0.00    +0.000 C 
ATOM     33  O   SER A   5       5.100   2.830   1.192  0.00  0.00    +0.000 OA
ATOM     34  CB  SER A   5       6.313   2.737  -1.645  0.00  0.00    +0.000 C 
ATOM     35  OG  SER A   5       7.630   3.151  -1.398  0.00  0.00    +0.000 OA
ATOM     36  OXT SER A   5       7.026   1.630   1.544  0.00  0.00    +0.000 OA
ATOM     37  H1  UNL     1      -7.033   1.506  -0.620  0.00  0.00    +0.000 HD
ATOM     38  H2  UNL     1      -7.615   0.251  -1.580  0.00  0.00    +0.000 HD
ATOM     39  H6  UNL     1      -4.184   2.446  -1.612  0.00  0.00    +0.000 HD
ATOM     40  H7  UNL     1      -3.288  -1.210  -0.692  0.00  0.00    +0.000 HD
ATOM     41  H18 UNL     1      -0.928   1.225   2.718  0.00  0.00    +0.000 HD
ATOM     42  H23 UNL     1       1.260   1.212  -1.088  0.00  0.00    +0.000 HD
ATOM     43  H29 UNL     1      -1.501  -3.471  -2.110  0.00  0.00    +0.000 HD
ATOM     44  H30 UNL     1       3.930   1.720  -1.594  0.00  0.00    +0.000 HD
ATOM     45  H34 UNL     1       8.224   2.454  -1.781  0.00  0.00    +0.000 HD
ATOM     46  H35 UNL     1       7.091   1.934   2.508  0.00  0.00    +0.000 HD
TER 
