REMARK SMILES CS(=O)(=O)c1sc(NC(=O)Nc2cccc(Br)c2)c2c1C=CCC2
REMARK SMILES IDX 5 1 6 2 7 3 19 4 20 5 21 6 22 7 23 8 24 9 2 10 3 11 4 12
REMARK SMILES IDX 1 13 8 14 9 15 10 16 11 17 12 20 13 21 18 22 14 23 16 24
REMARK SMILES IDX 15 25 17 26
REMARK H PARENT 8 18 11 19
ROOT
ATOM      1  C   UNL     1      -3.001   1.105  -0.010  1.00  0.00    +0.128 A 
ATOM      2  S   UNL     1      -1.329   1.464   0.088  1.00  0.00    -0.105 S 
ATOM      3  C   UNL     1      -0.883  -0.170   0.190  1.00  0.00    +0.101 A 
ATOM      4  C   UNL     1      -1.981  -1.003   0.217  1.00  0.00    -0.004 A 
ATOM      5  C   UNL     1      -3.204  -0.257   0.097  1.00  0.00    +0.009 A 
ATOM      6  C   UNL     1      -4.464  -0.934   0.090  1.00  0.00    +0.006 C 
ATOM      7  C   UNL     1      -4.531  -2.272  -0.018  1.00  0.00    -0.026 C 
ATOM      8  C   UNL     1      -3.304  -3.140  -0.139  1.00  0.00    +0.032 C 
ATOM      9  C   UNL     1      -2.004  -2.497   0.385  1.00  0.00    +0.043 C 
ENDROOT
BRANCH   1  10
ATOM     10  S   UNL     1      -4.076   2.510  -0.180  1.00  0.00    +0.185 S 
ATOM     11  O   UNL     1      -5.326   1.984  -0.696  1.00  0.00    -0.223 OA
ATOM     12  O   UNL     1      -4.016   3.203   1.091  1.00  0.00    -0.223 OA
ATOM     13  C   UNL     1      -3.358   3.530  -1.440  1.00  0.00    +0.164 C 
ENDBRANCH   1  10
BRANCH   3  14
ATOM     14  N   UNL     1       0.443  -0.543   0.321  1.00  0.00    -0.299 N 
ATOM     15  C   UNL     1       1.546   0.225  -0.041  1.00  0.00    +0.324 C 
ATOM     16  O   UNL     1       1.509   1.270  -0.675  1.00  0.00    -0.248 OA
ATOM     17  N   UNL     1       2.708  -0.390   0.413  1.00  0.00    -0.308 N 
ATOM     18  H   UNL     1       0.617  -1.530   0.433  1.00  0.00    +0.172 HD
ATOM     19  H   UNL     1       2.578  -1.065   1.152  1.00  0.00    +0.171 HD
BRANCH  17  20
ATOM     20  C   UNL     1       4.040  -0.009   0.147  1.00  0.00    +0.044 A 
ATOM     21  C   UNL     1       4.401   0.944  -0.808  1.00  0.00    +0.026 A 
ATOM     22  C   UNL     1       5.048  -0.653   0.876  1.00  0.00    +0.041 A 
ATOM     23  C   UNL     1       5.746   1.261  -1.025  1.00  0.00    +0.003 A 
ATOM     24  C   UNL     1       6.389  -0.333   0.655  1.00  0.00    +0.020 A 
ATOM     25  C   UNL     1       6.744   0.623  -0.292  1.00  0.00    +0.016 A 
ATOM     26 Br   UNL     1       7.737  -1.209   1.651  1.00  0.00    -0.051 Br
ENDBRANCH  17  20
ENDBRANCH   3  14
TORSDOF 3
